<?xml version="1.0"?>
<VTKFile type="RectilinearGrid" version="0.1" byte_order="LittleEndian">
<RectilinearGrid WholeExtent="0 45 0 44 0 32">
<Piece Extent="0 45 0 44 0 32">
<PointData>
<DataArray type="Float32" Name="phi" format="ascii">
-0
-0
-0
-0
-0
-0
0
0
0
0
0
0
0
0
0
0
0
0
0
0
0
0
0
0
0
0
0
0
0
0
0
0
0
0
0
0
0
0
0
0
-0
-0
-0
-0
-0
-0
-0
-0
-0
-0
0
0
0
0
0
0
0
0
0
0
0
0
0
0
0
0
0
0
0
0
0
0
0
0
0
0
0
0
0
0
0
0
0
0
0
0
0
0
-0
-0
-0
-0
-0
-0
-0
0
0
0
0
0
0
0
0
0
0
0
0
0
0
0
0
0
0
0
0
0
0
0
0
0
0
0
0
0
0
0
0
0
0
0
0
0
0
0
0
-0
-0
-0
-0
-0
0
0
0
0
0
0
0
0
0
0
0
0
0
0
0
0
0
0
0
0
0
0
0
0
0
0
0
0
0
0
0
0
0
0
0
0
0
0
0
0
0
0
-0
-0
-0
0
0
0
0
0
0
0
0
0
0
0
0
0
0
0
0
0
0
0
0
0
0
0
0
0
0
0
0
0
0
0
0
0
0
0
0
0
0
0
0
0
0
0
0
-0
-0
0
0
0
0
0
0
0
0
0
0
0
0
0
0
0
0
0
0
0
0
0
0
0
0
0
0
0
0
0
0
0
0
0
0
0
0
0
0
0
0
0
0
0
0
-0
0
0
0
0
0
0
0
0
0
0
0
0
0
0
0
0
0
0
0
0
0
0
0
0
0
0
0
0
0
0
0
0
0
0
0
0
0
0
0
0
0
0
0
0
0
0
0
0
0
0
0
0
0
0
0
0
0
0
0
0
0
0
0
0
0
0
0
0
0
0
0
0
0
0
0
0
0
0
0
0
0
0
0
0
0
0
0
0
0
0
0
0
0
0
0
0
0
0
0
0
0
0
0
0
0
0
0
0
0
0
0
0
0
0
0
0
0
0
0
0
0
0
0
0
0
0
0
0
0
0
0
0
0
0
0
0
0
0
0
0
0
0
0
0
0
0
0
0
0
0
0
0
0
0
0
0
0
0
0
0
0
0
0
0
0
0
0
0
0
0
0
0
0
0
0
0
0
0
0
0
0
0
0
0
0
0
0
0
0
0
0
0
0
0
0
0
0
0
0
0
0
0
0
0
0
0
0
0
0
0
0
0
0
0
0
0
0
0
0
0
0
0
0
0
0
0
0
0
0
0
0
0
0
0
0
0
0
0
0
0
0
0
0
0
0
0
0
0
0
0
0
0
0
0
0
0
0
0
0
0
0
0
0
0
0
0
0
0
0
0
0
0
0
0
0
0
0
0
0
0
0
0
0
0
0
0
0
0
0
0
0
0
0
0
0
0
0
0
0
0
0
0
0
0
0
0
0
0
0
0
0
0
0
0
0
0
0
0
0
0
0
0
0
0
0
0
0
0
0
0
0
0
0
0
0
0
0
0
0
0
0
0
0
0
0
0
0
0
0
0
0
0
0
0
0
0
0
0
0
0
0
0
0
0
0
0
0
0
0
0
0
0
0
0
0
0
0
0
0
0
0
0
0
0
0
0
0
0
0
0
0
0
0
0
0
0
0
0
0
0
0
0
0
0
0
0
0
0
0
0
0
0
0
0
0
0
0
0
0
0
0
0
0
0
0
0
0
0
0
0
0
0
0
0
0
0
0
0
0
0
0
0
0
0
0
0
0
0
0
0
0
0
0
0
0
0
0
0
0
0
0
0
0
0
0
0
0
0
0
0
0
0
0
0
0
0
0
0
0
0
0
0
0
0
0
0
0
0
0
0
0
0
0
0
0
0
0
0
0
0
0
0
0
0
0
0
0
0
0
0
0
0
0
0
0
0
0
0
0
0
0
0
0
0
0
0
0
0
0
0
0
0
0
0
0
0
0
0
0
0
0
0
0
0
0
0
0
0
0
0
0
0
0
0
0
0
0
0
0
0
0
0
0
0
0
0
0
0
0
0
0
0
0
0
0
0
0
0
0
0
0
0
0
0
0
0
0
0
0
0
0
0
0
0
0
0
0
0
0
0
0
0
0
0
0
0
0
0
0
0
0
0
0
0
0
0
0
0
0
0
0
0
0
0
0
0
0
0
0
0
0
0
0
0
0
0
0
0
0
0
0
0
0
0
0
0
0
0
0
0
0
0
0
0
0
0
0
0
0
0
0
0
0
0
0
0
0
0
0
0
0
0
0
0
0
0
0
0
0
0
0
0
0
0
0
0
0
0
0
0
0
0
0
0
0
0
0
0
0
0
0
0
0
0
0
0
0
0
0
0
0
0
0
0
0
0
0
0
0
0
0
0
0
0
0
0
0
0
0
0
0
0
0
0
0
0
0
0
0
0
0
0
0
0
0
0
0
0
0
0
0
0
0
0
0
0
0
0
0
0
0
0
0
0
0
0
0
0
0
0
0
0
0
0
0
0
0
0
0
0
0
0
0
0
0
0
0
0
0
0
0
0
0
0
0
0
0
0
0
0
0
0
0
0
0
0
0
0
0
0
0
0
0
0
0
0
0
0
0
0
0
0
0
0
0
0
0
0
0
0
0
0
0
0
0
0
0
0
0
0
0
0
0
0
0
0
0
0
0
0
0
0
0
0
0
0
0
0
0
0
0
0
0
0
0
0
0
0
0
0
0
0
0
0
0
0
0
0
0
0
0
0
0
0
0
0
0
0
0
0
0
0
0
0
0
0
0
0
0
0
0
0
0
0
0
0
0
0
0
0
0
0
0
0
0
0
0
0
0
0
0
0
0
0
0
0
0
0
0
0
0
0
0
0
0
0
0
0
0
0
0
0
0
0
0
0
0
0
0
0
0
0
0
0
0
0
0
0
0
0
0
0
0
0
0
0
0
0
0
0
0
0
0
0
0
0
0
0
0
0
0
0
0
0
0
0
0
0
0
0
0
0
0
0
0
0
0
0
0
0
0
0
0
0
0
0
0
0
0
0
0
0
0
0
0
0
0
0
0
0
0
0
0
0
0
0
0
0
0
0
0
0
0
0
0
0
0
0
0
0
0
0
0
0
0
0
0
0
0
0
0
0
0
0
0
0
0
0
0
0
0
0
0
0
0
0
0
0
0
0
0
0
0
0
0
0
0
0
0
0
0
0
0
0
0
0
0
0
0
0
0
0
0
0
0
0
0
0
0
0
0
0
0
0
0
0
0
0
0
0
0
0
0
0
0
0
0
0
0
0
0
0
0
0
0
0
0
0
0
0
0
0
0
0
0
0
0
0
0
0
0
0
0
0
0
0
0
0
0
0
0
0
0
0
0
0
0
0
0
0
0
0
0
0
0
0
0
0
0
0
0
0
0
0
0
0
0
0
0
0
0
0
0
0
0
0
0
0
0
0
0
0
0
0
0
0
0
0
0
0
0
0
0
0
0
0
0
0
0
0
0
0
0
0
0
0
0
0
0
0
0
0
0
0
0
0
0
0
0
0
0
0
0
0
0
0
0
0
0
0
0
0
0
0
0
0
0
0
0
0
0
0
0
0
0
0
0
0
0
0
0
0
0
0
0
0
0
0
0
0
0
0
0
0
0
0
0
0
0
0
0
0
0
0
0
0
0
0
0
0
0
0
0
0
0
0
0
0
0
0
0
0
0
0
0
0
0
0
0
0
0
0
0
0
0
0
0
0
0
0
0
0
0
0
0
0
0
0
0
0
0
0
0
0
0
0
0
0
0
0
0
0
0
0
0
0
0
0
0
0
0
0
0
0
0
0
0
0
0
0
0
0
0
0
0
0
0
0
0
0
0
0
0
0
0
0
0
0
0
0
0
0
0
0
0
0
0
0
0
0
0
0
0
0
0
0
0
0
0
0
0
0
0
0
0
0
0
0
0
0
0
0
0
0
0
0
0
0
0
0
0
0
0
0
0
0
0
0
0
0
0
0
0
0
0
0
0
0
0
0
0
0
0
0
0
0
0
0
0
0
0
0
0
0
0
0
0
0
0
0
0
0
0
0
0
0
0
0
0
0
0
0
0
0
0
0
0
0
0
0
0
0
0
0
0
0
0
0
0
0
0
0
0
0
0
0
0
0
0
0
0
0
0
0
0
0
0
0
0
0
0
0
0
0
0
0
0
0
-0
0
0
0
0
0
0
0
0
0
0
0
0
0
0
0
0
0
0
0
0
0
0
0
0
0
0
0
0
0
0
0
0
0
0
0
0
0
0
0
0
0
0
0
0
-0
-0
0
0
0
0
0
0
0
0
0
0
0
0
0
0
0
0
0
0
0
0
0
0
0
0
0
0
0
0
0
0
0
0
0
0
0
0
0
0
0
0
0
0
0
0
-0
-0
-0
0
0
0
0
0
0
0
0
0
0
0
0
0
0
0
0
0
0
0
0
0
0
0
0
0
0
0
0
0
0
0
0
0
0
0
0
0
0
0
0
0
0
-0
-0
-0
-0
-0
0
0
0
0
0
0
0
0
0
0
0
0
0
0
0
0
0
0
0
0
0
0
0
0
0
0
0
0
0
0
0
0
0
0
0
0
0
0
0
0
-0
-0
-0
-0
-0
-0
-0
0
0
0
0
0
0
0
0
0
0
0
0
0
0
0
0
0
0
0
0
0
0
0
0
0
0
0
0
0
0
0
0
0
0
0
0
0
0
-0
-0
-0
-0
-0
-0
-0
-0
-0
-0
0
0
0
0
0
0
0
0
0
0
0
0
0
0
0
0
0
0
0
0
0
0
0
0
0
0
0
0
0
0
0
0
0
0
-0
-0
-0
-0
-0
-0
-0.00112299
-0.000880945
-0.000653781
-0.000443806
-0.00025301
-8.29123e-05
6.55829e-05
0.000192271
0.000297672
0.000382981
0.000449961
0.000500783
0.000507915
0.000537861
0.000563681
0.000575977
0.000577193
0.00058066
0.000591026
0.000596746
0.000599463
0.000600473
0.000600706
0.000600722
0.000600706
0.000600473
0.000599463
0.000596746
0.000591026
0.00058066
0.000577193
0.000563681
0.000537861
0.000507915
0.000500783
0.000449961
0.000382981
0.000297672
0.000192271
6.55829e-05
-8.29123e-05
-0.00025301
-0.000443806
-0.000653781
-0.000880945
-0.00112299
-0.000880945
-0.000557721
-0.000250834
3.68625e-05
0.000302449
0.000543203
0.000756902
0.000942124
0.00109846
0.00122658
0.00132823
0.001406
0.00141693
0.00146304
0.00150298
0.00152203
0.00152392
0.00152929
0.0015454
0.0015543
0.00155853
0.0015601
0.00156046
0.00156049
0.00156046
0.0015601
0.00155853
0.0015543
0.0015454
0.00152929
0.00152391
0.00150297
0.00146303
0.00141693
0.001406
0.00132822
0.00122658
0.00109845
0.000942121
0.000756899
0.0005432
0.000302448
3.68614e-05
-0.000250835
-0.000557722
-0.000880945
-0.000653781
-0.000250834
0.000135276
0.000501312
0.000843491
0.00115782
0.00144058
0.00168881
0.00190081
0.00207637
0.00221688
0.00232515
0.00234041
0.00240496
0.00246108
0.00248791
0.00249056
0.00249814
0.00252088
0.00253345
0.00253943
0.00254165
0.00254216
0.0025422
0.00254216
0.00254165
0.00253943
0.00253345
0.00252088
0.00249814
0.00249056
0.00246106
0.00240495
0.0023404
0.00232514
0.00221687
0.00207636
0.0019008
0.0016888
0.00144057
0.00115782
0.000843488
0.00050131
0.000135275
-0.000250835
-0.000653781
-0.000443806
3.68623e-05
0.000501312
0.000946248
0.00136722
0.00175901
0.00211621
0.002434
0.00270882
0.002939
0.00312504
0.00326955
0.00329
0.00337672
0.00345245
0.00348876
0.00349235
0.00350262
0.00353347
0.00355054
0.00355866
0.00356168
0.00356238
0.00356243
0.00356238
0.00356168
0.00355866
0.00355054
0.00353346
0.00350262
0.00349235
0.00345243
0.00337671
0.00328998
0.00326953
0.00312503
0.00293899
0.0027088
0.00243399
0.0021162
0.001759
0.00136722
0.000946246
0.00050131
3.68618e-05
-0.000443806
-0.00025301
0.000302449
0.00084349
0.00136722
0.00186889
0.00234224
0.00278015
0.00317556
0.00352251
0.00381706
0.00405799
0.00424702
0.00427389
0.00438831
0.00448878
0.00453711
0.0045419
0.0045556
0.0045968
0.00461964
0.00463052
0.00463457
0.0046355
0.00463557
0.0046355
0.00463457
0.00463052
0.00461964
0.0045968
0.00455559
0.0045419
0.00448875
0.00438828
0.00427387
0.00424699
0.00405796
0.00381704
0.0035225
0.00317555
0.00278014
0.00234223
0.00186889
0.00136722
0.000843489
0.000302449
-0.00025301
-8.29123e-05
0.000543202
0.00115782
0.00175901
0.00234224
0.00290062
0.00342553
0.00390754
0.00433769
0.00470887
0.00501704
0.00526198
0.00529701
0.00544693
0.00557954
0.00564364
0.00565001
0.0056682
0.00572311
0.00575361
0.00576815
0.00577357
0.00577482
0.0057749
0.00577482
0.00577357
0.00576815
0.00575361
0.00572311
0.0056682
0.00565
0.0055795
0.00544689
0.00529697
0.00526194
0.00501701
0.00470884
0.00433767
0.00390752
0.00342552
0.00290062
0.00234224
0.00175901
0.00115782
0.000543202
-8.29123e-05
6.55829e-05
0.000756901
0.00144057
0.00211621
0.00278015
0.00342553
0.00404274
0.0046202
0.00514569
0.00560807
0.00599912
0.0063151
0.00636065
0.00655692
0.00673229
0.00681759
0.00682609
0.00685038
0.00692393
0.00696492
0.00698449
0.00699178
0.00699347
0.00699358
0.00699347
0.00699178
0.0069845
0.00696492
0.00692394
0.00685039
0.00682609
0.00673223
0.00655687
0.0063606
0.00631505
0.00599908
0.00560804
0.00514567
0.00462018
0.00404273
0.00342553
0.00278014
0.00211621
0.00144057
0.000756901
6.55829e-05
0.000192271
0.000942123
0.00168881
0.00243399
0.00317556
0.00390753
0.00462019
0.00530055
0.0059334
0.00650307
0.00699583
0.00740244
0.00746167
0.0077192
0.00795244
0.00806691
0.00807835
0.00811109
0.0082107
0.00826646
0.00829315
0.0083031
0.0083054
0.00830555
0.0083054
0.0083031
0.00829316
0.00826648
0.00821072
0.00811111
0.00807837
0.00795236
0.00771913
0.0074616
0.00740238
0.00699578
0.00650303
0.00593337
0.00530054
0.00462019
0.00390753
0.00317556
0.00243399
0.00168881
0.000942124
0.000192271
0.000297672
0.00109845
0.00190081
0.00270881
0.00352251
0.00433768
0.00514568
0.00593339
0.00668368
0.00737672
0.00799244
0.00851398
0.008591
0.00892988
0.00924246
0.00939782
0.00941341
0.00945813
0.00959511
0.00967228
0.00970935
0.00972319
0.00972639
0.0097266
0.00972639
0.0097232
0.00970937
0.00967232
0.00959516
0.00945819
0.00941347
0.00924235
0.00892978
0.00859093
0.0085139
0.00799239
0.00737668
0.00668366
0.00593338
0.00514568
0.00433768
0.00352251
0.00270882
0.00190081
0.00109846
0.000297672
0.000382981
0.00122658
0.00207637
0.002939
0.00381705
0.00470886
0.00560805
0.00650305
0.00737671
0.00820664
0.00896695
0.00963168
0.00973163
0.010178
0.0106001
0.0108136
0.0108352
0.0108972
0.0110891
0.0111983
0.011251
0.0112707
0.0112753
0.0112756
0.0112753
0.0112707
0.011251
0.0111984
0.0110893
0.0108974
0.0108353
0.0105999
0.0101779
0.00973154
0.00963159
0.00896689
0.00820662
0.0073767
0.00650305
0.00560806
0.00470886
0.00381706
0.002939
0.00207637
0.00122658
0.000382981
0.000449961
0.00132823
0.00221688
0.00312504
0.00405797
0.00501703
0.0059991
0.0069958
0.00799242
0.00896693
0.00989007
0.0107275
0.0108563
0.0114424
0.0120149
0.0123119
0.0123422
0.0124296
0.0127043
0.0128628
0.01294
0.0129689
0.0129757
0.0129761
0.0129757
0.012969
0.0129401
0.012863
0.0127046
0.01243
0.0123426
0.0120147
0.0114422
0.0108562
0.0107274
0.00989003
0.00896691
0.00799242
0.00699581
0.00599911
0.00501704
0.00405799
0.00312504
0.00221688
0.00132823
0.000449961
0.000500783
0.001406
0.00232514
0.00326954
0.00424701
0.00526196
0.00631507
0.0074024
0.00851393
0.00963163
0.0107275
0.0117627
0.0119264
0.0126876
0.013463
0.0138797
0.0139227
0.0140479
0.0144495
0.0146867
0.0148036
0.0148477
0.014858
0.0148586
0.014858
0.0148478
0.0148037
0.014687
0.0144499
0.0140485
0.0139234
0.0134627
0.0126875
0.0119263
0.0117627
0.0107274
0.00963164
0.00851395
0.00740243
0.0063151
0.00526198
0.00424702
0.00326955
0.00232515
0.001406
0.000500783
0.000507915
0.00141693
0.00234041
0.00328999
0.00427388
0.00529699
0.00636062
0.00746163
0.00859096
0.00973158
0.0108563
0.0119264
0.0120964
0.0128908
0.0137068
0.014149
0.0141949
0.0143283
0.0147589
0.0150149
0.0151415
0.0151894
0.0152005
0.0152013
0.0152005
0.0151895
0.0151417
0.0150152
0.0147594
0.014329
0.0141956
0.0137065
0.0128906
0.0120964
0.0119263
0.0108562
0.00973159
0.00859098
0.00746166
0.00636065
0.00529701
0.00427389
0.00329
0.00234041
0.00141694
0.000507915
0.000537861
0.00146304
0.00240495
0.00337671
0.0043883
0.00544691
0.00655689
0.00771916
0.00892981
0.0101779
0.0114423
0.0126876
0.0128907
0.0138593
0.0148984
0.0154856
0.0155475
0.0157292
0.0163318
0.016702
0.0168887
0.0169599
0.0169765
0.0169776
0.0169765
0.01696
0.0168889
0.0167024
0.0163325
0.0157303
0.0155487
0.0148981
0.0138591
0.0128906
0.0126875
0.0114423
0.010178
0.00892986
0.0077192
0.00655692
0.00544693
0.00438832
0.00337673
0.00240496
0.00146304
0.000537861
0.000563681
0.00150297
0.00246107
0.00345244
0.00448876
0.00557952
0.00673225
0.00795239
0.00924238
0.0106
0.0120147
0.0134627
0.0137066
0.0148982
0.0162507
0.0170629
0.017151
0.0174123
0.0183166
0.0189053
0.0192137
0.0193333
0.0193613
0.0193632
0.0193613
0.0193334
0.0192138
0.0189057
0.0183173
0.0174137
0.0171526
0.0162504
0.0148981
0.0137066
0.0134628
0.0120148
0.0106
0.00924245
0.00795244
0.0067323
0.00557955
0.00448878
0.00345246
0.00246108
0.00150298
0.000563681
0.000577193
0.00152392
0.00249057
0.00349236
0.00454191
0.00565002
0.00682612
0.0080784
0.00941351
0.0108354
0.0123426
0.0139234
0.0141956
0.0155487
0.0171528
0.0181699
0.0182833
0.0186234
0.019851
0.0207093
0.0211841
0.0213736
0.0214182
0.0214212
0.0214182
0.0213736
0.0211842
0.0207095
0.0198515
0.0186246
0.0182848
0.0171526
0.0155488
0.0141958
0.0139236
0.0123427
0.0108355
0.00941359
0.00807846
0.00682616
0.00565005
0.00454193
0.00349237
0.00249058
0.00152392
0.000577193
0.00058066
0.00152929
0.00249815
0.00350263
0.0045556
0.00566822
0.00685041
0.00811115
0.00945823
0.0108974
0.01243
0.0140485
0.014329
0.0157302
0.0174138
0.0185008
0.0186232
0.0189918
0.0203432
0.0213179
0.0218727
0.0220981
0.0221515
0.0221551
0.0221515
0.0220981
0.0218728
0.021318
0.0203436
0.0189928
0.0186246
0.0174137
0.0157304
0.0143292
0.0140487
0.0124301
0.0108975
0.00945831
0.00811121
0.00685046
0.00566825
0.00455563
0.00350264
0.00249816
0.0015293
0.00058066
0.000591026
0.0015454
0.00252088
0.00353347
0.00459681
0.00572313
0.00692396
0.00821076
0.0095952
0.0110893
0.0127045
0.0144498
0.0147593
0.0163322
0.018317
0.0196905
0.0198514
0.0203437
0.0222608
0.0238296
0.0248371
0.0252807
0.0253887
0.0253959
0.0253886
0.0252806
0.0248369
0.0238292
0.0222604
0.0203436
0.0198515
0.0183174
0.0163327
0.0147596
0.0144501
0.0127047
0.0110894
0.0095953
0.00821083
0.00692401
0.00572316
0.00459683
0.00353349
0.00252089
0.00154541
0.000591026
0.000596746
0.0015543
0.00253345
0.00355055
0.00461966
0.00575363
0.00696495
0.00826651
0.00967236
0.0111984
0.012863
0.0146868
0.015015
0.0167019
0.0189048
0.0205159
0.0207118
0.0213202
0.0238306
0.0262272
0.0280915
0.0290723
0.0293324
0.0293499
0.0293323
0.0290721
0.0280911
0.0262263
0.0238292
0.0213181
0.0207096
0.0189058
0.0167026
0.0150155
0.0146872
0.0128632
0.0111986
0.00967248
0.00826659
0.006965
0.00575367
0.00461968
0.00355056
0.00253346
0.00155431
0.000596746
0.000599463
0.00155853
0.00253943
0.00355867
0.00463053
0.00576817
0.00698453
0.0082932
0.00970942
0.0112511
0.0129401
0.0148036
0.0151414
0.0168883
0.0192124
0.0209696
0.0211889
0.0218766
0.0248389
0.0280921
0.0312782
0.0335542
0.034337
0.0343916
0.034337
0.0335539
0.0312776
0.028091
0.0248369
0.0218728
0.0211843
0.019214
0.0168892
0.015142
0.014804
0.0129403
0.0112513
0.00970953
0.00829328
0.00698458
0.00576821
0.00463056
0.00355869
0.00253944
0.00155854
0.000599463
0.000600473
0.0015601
0.00254165
0.00356169
0.00463458
0.00577359
0.00699182
0.00830315
0.00972325
0.0112708
0.012969
0.0148476
0.0151892
0.0169594
0.0193318
0.02115
0.0213795
0.0221029
0.0252829
0.0290732
0.0335545
0.0382126
0.0410075
0.04127
0.0410075
0.0382123
0.0335538
0.029072
0.0252806
0.0220982
0.0213738
0.0193336
0.0169603
0.0151898
0.0148481
0.0129693
0.011271
0.00972337
0.00830322
0.00699187
0.00577362
0.00463461
0.00356171
0.00254166
0.00156011
0.000600473
0.000600706
0.00156047
0.00254217
0.00356239
0.00463552
0.00577484
0.0069935
0.00830544
0.00972645
0.0112754
0.0129757
0.0148578
0.0152003
0.0169759
0.0193597
0.0211925
0.0214245
0.0221564
0.025391
0.0293335
0.0343375
0.0410077
0.0490249
0.0516973
0.0490248
0.0410074
0.0343368
0.0293322
0.0253885
0.0221516
0.0214184
0.0193616
0.0169768
0.0152009
0.0148583
0.012976
0.0112755
0.00972657
0.00830552
0.00699355
0.00577487
0.00463554
0.00356241
0.00254218
0.00156047
0.000600706
0.000600722
0.00156049
0.0025422
0.00356244
0.00463558
0.00577492
0.00699361
0.0083056
0.00972666
0.0112757
0.0129761
0.0148585
0.0152011
0.016977
0.0193615
0.0211953
0.0214275
0.02216
0.0253982
0.029351
0.0343921
0.0412702
0.0516974
0.0658629
0.0516973
0.0412699
0.0343914
0.0293497
0.0253958
0.0221552
0.0214214
0.0193634
0.0169779
0.0152016
0.014859
0.0129764
0.0112758
0.00972678
0.00830568
0.00699366
0.00577496
0.0046356
0.00356245
0.00254221
0.0015605
0.000600722
0.000600706
0.00156047
0.00254217
0.00356239
0.00463552
0.00577484
0.0069935
0.00830544
0.00972645
0.0112754
0.0129757
0.0148578
0.0152003
0.0169759
0.0193597
0.0211925
0.0214245
0.0221564
0.025391
0.0293335
0.0343375
0.0410077
0.0490249
0.0516973
0.0490248
0.0410074
0.0343368
0.0293322
0.0253885
0.0221516
0.0214184
0.0193616
0.0169768
0.0152009
0.0148583
0.012976
0.0112755
0.00972657
0.00830552
0.00699355
0.00577487
0.00463554
0.00356241
0.00254218
0.00156047
0.000600706
0.000600473
0.0015601
0.00254165
0.00356169
0.00463458
0.00577359
0.00699182
0.00830315
0.00972325
0.0112708
0.012969
0.0148476
0.0151892
0.0169594
0.0193318
0.02115
0.0213795
0.0221029
0.0252829
0.0290732
0.0335545
0.0382126
0.0410075
0.04127
0.0410075
0.0382123
0.0335538
0.029072
0.0252806
0.0220982
0.0213738
0.0193336
0.0169603
0.0151898
0.0148481
0.0129693
0.011271
0.00972337
0.00830322
0.00699187
0.00577362
0.00463461
0.00356171
0.00254166
0.00156011
0.000600473
0.000599463
0.00155853
0.00253943
0.00355867
0.00463053
0.00576817
0.00698453
0.0082932
0.00970942
0.0112511
0.0129401
0.0148036
0.0151414
0.0168883
0.0192124
0.0209696
0.0211889
0.0218766
0.0248389
0.0280921
0.0312782
0.0335542
0.034337
0.0343916
0.034337
0.0335539
0.0312776
0.028091
0.0248369
0.0218728
0.0211843
0.019214
0.0168892
0.015142
0.014804
0.0129403
0.0112513
0.00970953
0.00829328
0.00698458
0.00576821
0.00463056
0.00355869
0.00253944
0.00155854
0.000599463
0.000596746
0.0015543
0.00253345
0.00355055
0.00461966
0.00575363
0.00696495
0.00826651
0.00967236
0.0111984
0.012863
0.0146868
0.015015
0.0167019
0.0189048
0.0205159
0.0207118
0.0213202
0.0238306
0.0262272
0.0280915
0.0290723
0.0293324
0.0293499
0.0293323
0.0290721
0.0280911
0.0262263
0.0238292
0.0213181
0.0207096
0.0189058
0.0167026
0.0150155
0.0146872
0.0128632
0.0111986
0.00967248
0.00826659
0.006965
0.00575367
0.00461968
0.00355056
0.00253346
0.00155431
0.000596746
0.000591026
0.0015454
0.00252088
0.00353347
0.00459681
0.00572313
0.00692396
0.00821076
0.0095952
0.0110893
0.0127045
0.0144498
0.0147593
0.0163322
0.018317
0.0196905
0.0198514
0.0203437
0.0222608
0.0238296
0.0248371
0.0252807
0.0253887
0.0253959
0.0253886
0.0252806
0.0248369
0.0238292
0.0222604
0.0203436
0.0198515
0.0183174
0.0163327
0.0147596
0.0144501
0.0127047
0.0110894
0.0095953
0.00821083
0.00692401
0.00572316
0.00459683
0.00353349
0.00252089
0.00154541
0.000591026
0.00058066
0.00152929
0.00249815
0.00350263
0.0045556
0.00566822
0.00685041
0.00811115
0.00945823
0.0108974
0.01243
0.0140485
0.014329
0.0157302
0.0174138
0.0185008
0.0186232
0.0189918
0.0203432
0.0213179
0.0218727
0.0220981
0.0221515
0.0221551
0.0221515
0.0220981
0.0218728
0.021318
0.0203436
0.0189928
0.0186246
0.0174137
0.0157304
0.0143292
0.0140487
0.0124301
0.0108975
0.00945831
0.00811121
0.00685046
0.00566825
0.00455563
0.00350264
0.00249816
0.0015293
0.00058066
0.000577193
0.00152392
0.00249057
0.00349236
0.00454191
0.00565002
0.00682612
0.0080784
0.00941351
0.0108354
0.0123426
0.0139234
0.0141956
0.0155487
0.0171528
0.0181699
0.0182833
0.0186234
0.019851
0.0207093
0.0211841
0.0213736
0.0214182
0.0214212
0.0214182
0.0213736
0.0211842
0.0207095
0.0198515
0.0186246
0.0182848
0.0171526
0.0155488
0.0141958
0.0139236
0.0123427
0.0108355
0.00941359
0.00807846
0.00682616
0.00565005
0.00454193
0.00349237
0.00249058
0.00152392
0.000577193
0.000563681
0.00150297
0.00246107
0.00345244
0.00448876
0.00557952
0.00673225
0.00795239
0.00924238
0.0106
0.0120147
0.0134627
0.0137066
0.0148982
0.0162507
0.0170629
0.017151
0.0174123
0.0183166
0.0189053
0.0192137
0.0193333
0.0193613
0.0193632
0.0193613
0.0193334
0.0192138
0.0189057
0.0183173
0.0174137
0.0171526
0.0162504
0.0148981
0.0137066
0.0134628
0.0120148
0.0106
0.00924245
0.00795244
0.0067323
0.00557955
0.00448878
0.00345246
0.00246108
0.00150298
0.000563681
0.000537861
0.00146304
0.00240495
0.00337671
0.0043883
0.00544691
0.00655689
0.00771916
0.00892981
0.0101779
0.0114423
0.0126876
0.0128907
0.0138593
0.0148984
0.0154856
0.0155475
0.0157292
0.0163318
0.016702
0.0168887
0.0169599
0.0169765
0.0169776
0.0169765
0.01696
0.0168889
0.0167024
0.0163325
0.0157303
0.0155487
0.0148981
0.0138591
0.0128906
0.0126875
0.0114423
0.010178
0.00892986
0.0077192
0.00655692
0.00544693
0.00438832
0.00337673
0.00240496
0.00146304
0.000537861
0.000507915
0.00141693
0.00234041
0.00328999
0.00427388
0.00529699
0.00636062
0.00746163
0.00859096
0.00973158
0.0108563
0.0119264
0.0120964
0.0128908
0.0137068
0.014149
0.0141949
0.0143283
0.0147589
0.0150149
0.0151415
0.0151894
0.0152005
0.0152013
0.0152005
0.0151895
0.0151417
0.0150152
0.0147594
0.014329
0.0141956
0.0137065
0.0128906
0.0120964
0.0119263
0.0108562
0.00973159
0.00859098
0.00746166
0.00636065
0.00529701
0.00427389
0.00329
0.00234041
0.00141694
0.000507915
0.000500783
0.001406
0.00232514
0.00326954
0.00424701
0.00526196
0.00631507
0.0074024
0.00851393
0.00963163
0.0107275
0.0117627
0.0119264
0.0126876
0.013463
0.0138797
0.0139227
0.0140479
0.0144495
0.0146867
0.0148036
0.0148477
0.014858
0.0148586
0.014858
0.0148478
0.0148037
0.014687
0.0144499
0.0140485
0.0139234
0.0134627
0.0126875
0.0119263
0.0117627
0.0107274
0.00963164
0.00851395
0.00740243
0.0063151
0.00526198
0.00424702
0.00326955
0.00232515
0.001406
0.000500783
0.000449961
0.00132823
0.00221688
0.00312504
0.00405797
0.00501703
0.0059991
0.0069958
0.00799242
0.00896693
0.00989007
0.0107275
0.0108563
0.0114424
0.0120149
0.0123119
0.0123422
0.0124296
0.0127043
0.0128628
0.01294
0.0129689
0.0129757
0.0129761
0.0129757
0.012969
0.0129401
0.012863
0.0127046
0.01243
0.0123426
0.0120147
0.0114422
0.0108562
0.0107274
0.00989003
0.00896691
0.00799242
0.00699581
0.00599911
0.00501704
0.00405799
0.00312504
0.00221688
0.00132823
0.000449961
0.000382981
0.00122658
0.00207637
0.002939
0.00381705
0.00470886
0.00560805
0.00650305
0.00737671
0.00820664
0.00896695
0.00963168
0.00973163
0.010178
0.0106001
0.0108136
0.0108352
0.0108972
0.0110891
0.0111983
0.011251
0.0112707
0.0112753
0.0112756
0.0112753
0.0112707
0.011251
0.0111984
0.0110893
0.0108974
0.0108353
0.0105999
0.0101779
0.00973154
0.00963159
0.00896689
0.00820662
0.0073767
0.00650305
0.00560806
0.00470886
0.00381706
0.002939
0.00207637
0.00122658
0.000382981
0.000297672
0.00109845
0.00190081
0.00270881
0.00352251
0.00433768
0.00514568
0.00593339
0.00668368
0.00737672
0.00799244
0.00851398
0.008591
0.00892988
0.00924246
0.00939782
0.00941341
0.00945813
0.00959511
0.00967228
0.00970935
0.00972319
0.00972639
0.0097266
0.00972639
0.0097232
0.00970937
0.00967232
0.00959516
0.00945819
0.00941347
0.00924235
0.00892978
0.00859093
0.0085139
0.00799239
0.00737668
0.00668366
0.00593338
0.00514568
0.00433768
0.00352251
0.00270882
0.00190081
0.00109846
0.000297672
0.000192271
0.000942123
0.00168881
0.00243399
0.00317556
0.00390753
0.00462019
0.00530055
0.0059334
0.00650307
0.00699583
0.00740244
0.00746167
0.0077192
0.00795244
0.00806691
0.00807835
0.00811109
0.0082107
0.00826646
0.00829315
0.0083031
0.0083054
0.00830555
0.0083054
0.0083031
0.00829316
0.00826648
0.00821072
0.00811111
0.00807837
0.00795236
0.00771913
0.0074616
0.00740238
0.00699578
0.00650303
0.00593337
0.00530054
0.00462019
0.00390753
0.00317556
0.00243399
0.00168881
0.000942124
0.000192271
6.55829e-05
0.000756901
0.00144057
0.00211621
0.00278015
0.00342553
0.00404274
0.0046202
0.00514569
0.00560807
0.00599912
0.0063151
0.00636065
0.00655692
0.00673229
0.00681759
0.00682609
0.00685038
0.00692393
0.00696492
0.00698449
0.00699178
0.00699347
0.00699358
0.00699347
0.00699178
0.0069845
0.00696492
0.00692394
0.00685039
0.00682609
0.00673223
0.00655687
0.0063606
0.00631505
0.00599908
0.00560804
0.00514567
0.00462018
0.00404273
0.00342553
0.00278014
0.00211621
0.00144057
0.000756901
6.55829e-05
-8.29123e-05
0.000543202
0.00115782
0.00175901
0.00234224
0.00290062
0.00342553
0.00390754
0.00433769
0.00470887
0.00501704
0.00526198
0.00529701
0.00544693
0.00557954
0.00564364
0.00565001
0.0056682
0.00572311
0.00575361
0.00576815
0.00577357
0.00577482
0.0057749
0.00577482
0.00577357
0.00576815
0.00575361
0.00572311
0.0056682
0.00565
0.0055795
0.00544689
0.00529697
0.00526194
0.00501701
0.00470884
0.00433767
0.00390752
0.00342552
0.00290062
0.00234224
0.00175901
0.00115782
0.000543202
-8.29123e-05
-0.00025301
0.000302449
0.00084349
0.00136722
0.00186889
0.00234224
0.00278015
0.00317556
0.00352251
0.00381706
0.00405799
0.00424702
0.00427389
0.00438831
0.00448878
0.00453711
0.0045419
0.0045556
0.0045968
0.00461964
0.00463052
0.00463457
0.0046355
0.00463557
0.0046355
0.00463457
0.00463052
0.00461964
0.0045968
0.00455559
0.0045419
0.00448875
0.00438828
0.00427387
0.00424699
0.00405796
0.00381704
0.0035225
0.00317555
0.00278014
0.00234223
0.00186889
0.00136722
0.000843489
0.000302449
-0.00025301
-0.000443806
3.68623e-05
0.000501312
0.000946248
0.00136722
0.00175901
0.00211621
0.002434
0.00270882
0.002939
0.00312504
0.00326955
0.00329
0.00337672
0.00345245
0.00348876
0.00349235
0.00350262
0.00353347
0.00355054
0.00355866
0.00356168
0.00356238
0.00356243
0.00356238
0.00356168
0.00355866
0.00355054
0.00353346
0.00350262
0.00349235
0.00345243
0.00337671
0.00328998
0.00326953
0.00312503
0.00293899
0.0027088
0.00243399
0.0021162
0.001759
0.00136722
0.000946246
0.00050131
3.68618e-05
-0.000443806
-0.000653781
-0.000250834
0.000135276
0.000501312
0.000843491
0.00115782
0.00144058
0.00168881
0.00190081
0.00207637
0.00221688
0.00232515
0.00234041
0.00240496
0.00246108
0.00248791
0.00249056
0.00249814
0.00252088
0.00253345
0.00253943
0.00254165
0.00254216
0.0025422
0.00254216
0.00254165
0.00253943
0.00253345
0.00252088
0.00249814
0.00249056
0.00246106
0.00240495
0.0023404
0.00232514
0.00221687
0.00207636
0.0019008
0.0016888
0.00144057
0.00115782
0.000843488
0.00050131
0.000135275
-0.000250835
-0.000653781
-0.000880945
-0.000557721
-0.000250834
3.68625e-05
0.000302449
0.000543203
0.000756902
0.000942124
0.00109846
0.00122658
0.00132823
0.001406
0.00141693
0.00146304
0.00150298
0.00152203
0.00152392
0.00152929
0.0015454
0.0015543
0.00155853
0.0015601
0.00156046
0.00156049
0.00156046
0.0015601
0.00155853
0.0015543
0.0015454
0.00152929
0.00152391
0.00150297
0.00146303
0.00141693
0.001406
0.00132822
0.00122658
0.00109845
0.000942121
0.000756899
0.0005432
0.000302448
3.68614e-05
-0.000250835
-0.000557722
-0.000880945
-0.00112299
-0.000880945
-0.000653781
-0.000443806
-0.00025301
-8.29123e-05
6.55829e-05
0.000192271
0.000297672
0.000382981
0.000449961
0.000500783
0.000507915
0.000537861
0.000563681
0.000575977
0.000577193
0.00058066
0.000591026
0.000596746
0.000599463
0.000600473
0.000600706
0.000600722
0.000600706
0.000600473
0.000599463
0.000596746
0.000591026
0.00058066
0.000577193
0.000563681
0.000537861
0.000507915
0.000500783
0.000449961
0.000382981
0.000297672
0.000192271
6.55829e-05
-8.29123e-05
-0.00025301
-0.000443806
-0.000653781
-0.000880945
-0.00112299
-0.00224599
-0.00176189
-0.00130756
-0.000887612
-0.000506021
-0.000165825
0.000131166
0.000384542
0.000595343
0.000765962
0.000899921
0.00100157
0.00101583
0.00107572
0.00112736
0.00115195
0.00115439
0.00116132
0.00118205
0.00119349
0.00119893
0.00120095
0.00120141
0.00120144
0.00120141
0.00120095
0.00119893
0.00119349
0.00118205
0.00116132
0.00115439
0.00112736
0.00107572
0.00101583
0.00100157
0.000899921
0.000765962
0.000595343
0.000384542
0.000131166
-0.000165825
-0.000506021
-0.000887612
-0.00130756
-0.00176189
-0.00224599
-0.00176189
-0.00111566
-0.000502079
7.31358e-05
0.000604151
0.00108552
0.0015128
0.00188315
0.00219573
0.00245192
0.00265517
0.00281068
0.00283254
0.00292473
0.00300459
0.00304269
0.00304646
0.00305721
0.00308942
0.00310721
0.00311567
0.00311881
0.00311954
0.00311959
0.00311954
0.00311881
0.00311567
0.00310721
0.00308942
0.0030572
0.00304645
0.00300457
0.00292472
0.00283253
0.00281067
0.00265516
0.00245191
0.00219573
0.00188314
0.0015128
0.00108552
0.000604148
7.31336e-05
-0.00050208
-0.00111566
-0.00176189
-0.00130756
-0.000502079
0.00026976
0.00100149
0.00168554
0.00231393
0.00287922
0.00337551
0.00379936
0.00415037
0.00443129
0.00464775
0.00467827
0.00480733
0.00491953
0.00497318
0.00497849
0.00499364
0.0050391
0.00506423
0.00507618
0.00508063
0.00508165
0.00508172
0.00508165
0.00508063
0.00507618
0.00506423
0.0050391
0.00499363
0.00497848
0.0049195
0.0048073
0.00467825
0.00464773
0.00443127
0.00415035
0.00379934
0.00337549
0.00287921
0.00231393
0.00168553
0.00100148
0.000269758
-0.00050208
-0.00130756
-0.000887612
7.31354e-05
0.00100149
0.00189087
0.00273238
0.00351557
0.00422966
0.00486496
0.00541439
0.0058746
0.00624655
0.00653546
0.00657635
0.00674975
0.00690115
0.00697374
0.00698093
0.00700146
0.00706313
0.00709727
0.00711351
0.00711955
0.00712094
0.00712104
0.00712094
0.00711955
0.00711351
0.00709726
0.00706313
0.00700145
0.00698092
0.00690111
0.00674971
0.00657631
0.00653542
0.00624651
0.00587456
0.00541437
0.00486494
0.00422965
0.00351556
0.00273237
0.00189086
0.00100149
7.31343e-05
-0.000887612
-0.000506021
0.00060415
0.00168554
0.00273238
0.00373517
0.00468138
0.0055568
0.0063473
0.00704093
0.00762981
0.00811151
0.00848946
0.00854318
0.00877196
0.00897283
0.00906946
0.00907905
0.00910642
0.00918881
0.00923449
0.00925624
0.00926433
0.0092662
0.00926632
0.0092662
0.00926433
0.00925623
0.00923448
0.0091888
0.00910641
0.00907904
0.00897277
0.0087719
0.00854313
0.0084894
0.00811146
0.00762977
0.00704089
0.00634727
0.00555678
0.00468137
0.00373516
0.00273237
0.00168554
0.000604149
-0.000506021
-0.000165825
0.00108552
0.00231393
0.00351557
0.00468138
0.00579759
0.00684693
0.00781056
0.00867055
0.00941267
0.0100288
0.0105186
0.0105886
0.0108884
0.0111535
0.0112817
0.0112944
0.0113308
0.0114406
0.0115016
0.0115307
0.0115415
0.011544
0.0115442
0.011544
0.0115415
0.0115307
0.0115016
0.0114406
0.0113308
0.0112944
0.0111535
0.0108883
0.0105885
0.0105185
0.0100288
0.00941262
0.00867051
0.00781053
0.00684691
0.00579758
0.00468137
0.00351557
0.00231393
0.00108552
-0.000165825
0.000131166
0.0015128
0.00287922
0.00422966
0.00555679
0.00684693
0.00808082
0.00923531
0.010286
0.0112104
0.0119923
0.0126242
0.0127152
0.0131077
0.0134584
0.013629
0.0136459
0.0136945
0.0138416
0.0139236
0.0139627
0.0139773
0.0139806
0.0139809
0.0139806
0.0139773
0.0139627
0.0139236
0.0138416
0.0136945
0.0136459
0.0134583
0.0131076
0.0127151
0.0126241
0.0119923
0.0112104
0.0102859
0.00923528
0.0080808
0.00684692
0.00555679
0.00422966
0.00287922