<?xml version="1.0"?>
<VTKFile type="RectilinearGrid" version="0.1" byte_order="LittleEndian">
<RectilinearGrid WholeExtent="0 21 0 51 0 68">
<Piece Extent="0 21 0 51 0 68">
<PointData>
<DataArray type="Float32" Name="phi" format="ascii">
0.210269
0.209094
0.205451
0.198956
0.188818
0.173464
0.149507
0.108422
0.0592283
0.0198729
0
0
0
0.0201776
0.106209
0.14864
0.173058
0.188595
0.198818
0.205354
0.209018
0.2102
0.210296
0.209123
0.205487
0.199006
0.188897
0.173607
0.149824
0.109282
0.0608223
0.0208944
0
0
0
0.0217064
0.107113
0.148978
0.173208
0.188676
0.198869
0.205391
0.209047
0.210227
0.210377
0.20921
0.205594
0.199155
0.18913
0.174029
0.150748
0.111845
0.0663619
0.0261524
0
0
0
0.0283972
0.109883
0.149968
0.173648
0.188916
0.19902
0.205499
0.209135
0.210309
0.210537
0.209381
0.205804
0.199446
0.189582
0.174833
0.152465
0.116639
0.0796351
0.0553936
0.0458258
0.0366054
0.0450764
0.0539896
0.115331
0.151809
0.174486
0.18938
0.199316
0.205712
0.209308
0.210469
0.211
0.209878
0.206411
0.200279
0.190854
0.177015
0.156794
0.126916
0.100688
0.0864601
0.0812646
0.0751314
0.0803778
0.0849279
0.126344
0.156361
0.176743
0.190681
0.200162
0.206326
0.209809
0.210937
0.211648
0.21057
0.207249
0.201407
0.19252
0.179704
0.161577
0.13633
0.116256
0.106423
0.103023
0.0992087
0.102244
0.105145
0.136092
0.161295
0.179498
0.192377
0.201306
0.207173
0.210507
0.21159
0.212443
0.211417
0.208263
0.202747
0.194437
0.182648
0.16642
0.144858
0.12903
0.121914
0.119559
0.117031
0.118874
0.120841
0.144798
0.166239
0.182494
0.194321
0.202661
0.208196
0.211361
0.21239
0.213349
0.212379
0.209404
0.204229
0.196503
0.185705
0.171194
0.15271
0.140098
0.13481
0.133111
0.131332
0.132539
0.133948
0.152754
0.171084
0.185591
0.19641
0.204156
0.209346
0.212329
0.213302
0.214333
0.213421
0.21063
0.205798
0.198647
0.188789
0.175839
0.15999
0.149873
0.145854
0.144588
0.143284
0.144138
0.145194
0.160092
0.175779
0.188706
0.198573
0.205738
0.21058
0.213378
0.214292
0.215368
0.214513
0.211905
0.207412
0.200816
0.191844
0.180312
0.166729
0.158559
0.155443
0.154476
0.153494
0.154137
0.154955
0.16686
0.180288
0.191785
0.200758
0.207362
0.211863
0.214476
0.215333
0.216429
0.21563
0.213201
0.209035
0.202969
0.194825
0.184578
0.172937
0.166288
0.163832
0.163077
0.162323
0.162829
0.163479
0.173079
0.184579
0.194786
0.202925
0.208995
0.213166
0.215599
0.216398
0.217494
0.216751
0.214494
0.210641
0.205076
0.197699
0.188607
0.178622
0.173168
0.171202
0.170603
0.170014
0.170426
0.170951
0.178764
0.188625
0.197675
0.205043
0.210609
0.214465
0.216725
0.217469
0.218549
0.217858
0.215765
0.212209
0.207112
0.20044
0.192379
0.183798
0.179287
0.177692
0.177211
0.176744
0.177085
0.177516
0.183934
0.192408
0.200428
0.207088
0.212183
0.215741
0.217836
0.218527
0.219577
0.218936
0.216998
0.21372
0.209058
0.203029
0.195881
0.188488
0.184724
0.183415
0.183023
0.182649
0.182935
0.183292
0.188614
0.195918
0.203027
0.209042
0.213701
0.216979
0.218918
0.21956
0.22057
0.219975
0.218182
0.215162
0.210901
0.205454
0.199109
0.192716
0.189551
0.188464
0.188141
0.187836
0.18808
0.188379
0.192832
0.19915
0.205458
0.21089
0.215148
0.218167
0.219961
0.220555
0.221517
0.220966
0.219307
0.216526
0.21263
0.207706
0.202065
0.196514
0.193829
0.192918
0.192648
0.192397
0.192606
0.192859
0.196619
0.202108
0.207715
0.212625
0.216516
0.219295
0.220955
0.221506
0.222413
0.221902
0.220367
0.217805
0.21424
0.209783
0.204755
0.199912
0.197616
0.196843
0.196616
0.196407
0.196587
0.196804
0.200007
0.204798
0.209795
0.214239
0.217798
0.220358
0.221894
0.222404
0.223253
0.222779
0.221357
0.218994
0.215728
0.211685
0.20719
0.202942
0.200961
0.200301
0.200107
0.199931
0.200088
0.200274
0.203027
0.207233
0.211701
0.21573
0.21899
0.221351
0.222773
0.223247
0.224035
0.223595
0.222275
0.220092
0.217093
0.213417
0.209383
0.205634
0.203913
0.203342
0.203175
0.203025
0.203162
0.203325
0.205712
0.209424
0.213434
0.217098
0.220091
0.222272
0.223591
0.224031
0.224757
0.224347
0.223121
0.221098
0.218338
0.214984
0.211348
0.20802
0.20651
0.206013
0.205868
0.205739
0.20586
0.206002
0.20809
0.211388
0.215003
0.218345
0.221099
0.223119
0.224345
0.224755
0.22542
0.225036
0.223893
0.222015
0.219467
0.216395
0.2131
0.210126
0.208791
0.208354
0.208227
0.208114
0.208222
0.208347
0.21019
0.213138
0.216414
0.219475
0.222018
0.223894
0.225036
0.225418
0.226022
0.225663
0.224595
0.222845
0.220483
0.217657
0.214656
0.21198
0.21079
0.210401
0.210289
0.21019
0.210286
0.210398
0.212037
0.214693
0.217676
0.220492
0.222849
0.224596
0.225664
0.226022
0.226567
0.22623
0.225227
0.22359
0.221392
0.218779
0.216031
0.213605
0.212535
0.212187
0.212086
0.211998
0.212085
0.212185
0.213658
0.216065
0.218799
0.221402
0.223596
0.22523
0.226231
0.226568
0.227055
0.226737
0.225793
0.224255
0.2222
0.219772
0.217239
0.215024
0.214053
0.213738
0.213647
0.213568
0.213647
0.213738
0.215072
0.217272
0.219792
0.222211
0.224262
0.225797
0.22674
0.227057
0.227489
0.227188
0.226295
0.224844
0.222913
0.220644
0.218294
0.216256
0.215368
0.21508
0.214998
0.214926
0.214998
0.215082
0.216301
0.218325
0.220664
0.222924
0.224851
0.2263
0.227192
0.227493
0.227873
0.227586
0.226737
0.225362
0.223537
0.221405
0.219209
0.217319
0.2165
0.216235
0.216159
0.216093
0.21616
0.216237
0.217361
0.21924
0.221424
0.223549
0.225369
0.226742
0.22759
0.227876
0.228207
0.227933
0.227122
0.225811
0.224077
0.222061
0.219996
0.21823
0.217467
0.217222
0.217151
0.21709
0.217153
0.217224
0.218269
0.220026
0.222081
0.22409
0.225819
0.227128
0.227938
0.228211
0.228494
0.228231
0.227453
0.226197
0.224541
0.222622
0.220666
0.219002
0.218286
0.218056
0.21799
0.217933
0.217992
0.218059
0.219039
0.220694
0.222641
0.224553
0.226206
0.227459
0.228237
0.2285
0.228738
0.228484
0.227733
0.226523
0.224931
0.223093
0.221228
0.219648
0.21897
0.218752
0.21869
0.218636
0.218692
0.218755
0.219683
0.221255
0.223113
0.224944
0.226532
0.22774
0.22849
0.228744
0.228941
0.228694
0.227965
0.226793
0.225254
0.223482
0.221689
0.220177
0.219529
0.219322
0.219262
0.219211
0.219265
0.219325
0.220211
0.221716
0.223501
0.225267
0.226802
0.227972
0.2287
0.228946
0.229103
0.228862
0.228152
0.22701
0.225513
0.223793
0.222058
0.220598
0.219975
0.219775
0.219718
0.219669
0.21972
0.219779
0.220631
0.222084
0.223812
0.225526
0.227019
0.228159
0.228869
0.229109
0.229228
0.228992
0.228294
0.227175
0.22571
0.22403
0.222339
0.220919
0.220314
0.22012
0.220064
0.220017
0.220067
0.220123
0.220951
0.222365
0.224049
0.225724
0.227185
0.228302
0.228998
0.229234
0.229316
0.229083
0.228395
0.227292
0.22585
0.224197
0.222536
0.221144
0.220551
0.220362
0.220307
0.220261
0.22031
0.220365
0.221176
0.222562
0.224216
0.225863
0.227302
0.228403
0.22909
0.229322
0.229368
0.229137
0.228455
0.227362
0.225932
0.224296
0.222654
0.221278
0.220692
0.220505
0.220451
0.220405
0.220454
0.220509
0.221309
0.222679
0.224315
0.225946
0.227372
0.228463
0.229144
0.229375
0.229386
0.229155
0.228475
0.227385
0.22596
0.224329
0.222692
0.221322
0.220739
0.220553
0.220499
0.220453
0.220502
0.220556
0.221353
0.222718
0.224348
0.225973
0.227395
0.228483
0.229162
0.229392
0.229795
0.229579
0.228943
0.227926
0.226604
0.225099
0.223598
0.222352
0.221824
0.221656
0.221608
0.221566
0.22161
0.22166
0.222381
0.223622
0.225117
0.226617
0.227937
0.228951
0.229586
0.229802
0.230184
0.229981
0.229387
0.228439
0.22721
0.225821
0.224445
0.223311
0.222832
0.22268
0.222636
0.222599
0.222639
0.222684
0.223337
0.224468
0.225839
0.227224
0.228449
0.229396
0.229989
0.230191
0.230551
0.230362
0.229805
0.228921
0.22778
0.226496
0.225234
0.2242
0.223765
0.223627
0.223588
0.223554
0.22359
0.223631
0.224224
0.225255
0.226514
0.227793
0.228932
0.229815
0.23037
0.230559
0.230896
0.230719
0.230198
0.229372
0.228311
0.227124
0.225964
0.22502
0.224625
0.2245
0.224464
0.224434
0.224467
0.224504
0.225042
0.225985
0.227141
0.228325
0.229383
0.230208
0.230728
0.230905
0.231219
0.231052
0.230564
0.229792
0.228805
0.227705
0.226638
0.225774
0.225414
0.2253
0.225267
0.22524
0.22527
0.225303
0.225794
0.226657
0.227722
0.228818
0.229804
0.230574
0.231062
0.231228
0.231518
0.231361
0.230903
0.23018
0.229259
0.228239
0.227254
0.226462
0.226133
0.226028
0.225999
0.225974
0.226001
0.226032
0.226481
0.227272
0.228255
0.229273
0.230192
0.230913
0.231371
0.231528
0.231793
0.231646
0.231214
0.230536
0.229675
0.228726
0.227814
0.227085
0.226783
0.226688
0.226661
0.226638
0.226663
0.226691
0.227103
0.227832
0.228741
0.229688
0.230548
0.231225
0.231656
0.231803
0.232044
0.231904
0.231497
0.230859
0.230051
0.229166
0.228319
0.227645
0.227367
0.227279
0.227254
0.227234
0.227257
0.227283
0.227662
0.228335
0.229181
0.230065
0.230871
0.231508
0.231915
0.232054
0.232269
0.232137
0.231752
0.231149
0.230389
0.229558
0.228769
0.228144
0.227886
0.227805
0.227782
0.227762
0.227784
0.227808
0.228159
0.228785
0.229573
0.230402
0.231161
0.231763
0.232148
0.23228
0.232469
0.232343
0.231977
0.231405
0.230686
0.229904
0.229164
0.228581
0.228341
0.228265
0.228244
0.228226
0.228246
0.228268
0.228595
0.229179
0.229919
0.2307
0.231417
0.231989
0.232354
0.23248
0.232643
0.232523
0.232173
0.231628
0.230945
0.230204
0.229506
0.228957
0.228733
0.228662
0.228642
0.228625
0.228644
0.228665
0.228971
0.22952
0.230218
0.230958
0.23164
0.232185
0.232534
0.232654
0.232791
0.232675
0.232339
0.231817
0.231163
0.230457
0.229794
0.229275
0.229062
0.228996
0.228977
0.228961
0.228979
0.228999
0.229288
0.229808
0.230471
0.231176
0.231829
0.232351
0.232687
0.232802
0.232912
0.232801
0.232476
0.231971
0.231342
0.230664
0.230029
0.229534
0.229331
0.229267
0.229249
0.229234
0.229251
0.22927
0.229546
0.230043
0.230678
0.231355
0.231984
0.232488
0.232812
0.232924
0.233007
0.232898
0.232582
0.232092
0.231481
0.230825
0.230212
0.229734
0.229539
0.229478
0.229461
0.229446
0.229463
0.229481
0.229746
0.230225
0.230839
0.231494
0.232104
0.232594
0.23291
0.233018
0.233075
0.232968
0.232658
0.232178
0.231581
0.23094
0.230342
0.229877
0.229688
0.229628
0.229611
0.229597
0.229613
0.229631
0.229889
0.230355
0.230953
0.231594
0.23219
0.23267
0.232979
0.233086
0.233115
0.23301
0.232704
0.23223
0.23164
0.231009
0.23042
0.229963
0.229777
0.229718
0.229702
0.229688
0.229704
0.229721
0.229974
0.230433
0.231022
0.231653
0.232242
0.232716
0.233021
0.233127
0.233129
0.233024
0.232719
0.232247
0.23166
0.231031
0.230446
0.229991
0.229806
0.229748
0.229732
0.229718
0.229734
0.229751
0.230003
0.230459
0.231045
0.231673
0.232259
0.232731
0.233035
0.23314
0.210378
0.209207
0.20558
0.199117
0.189041
0.173818
0.15018
0.109986
0.0618838
0.0215172
0
0
0
0.0226428
0.107826
0.149343
0.173421
0.188821
0.19898
0.205484
0.209132
0.210309
0.210405
0.209236
0.205615
0.199167
0.189119
0.173959
0.150489
0.110814
0.0634186
0.0225187
0
0
0
0.0241341
0.108696
0.149672
0.173569
0.188901
0.19903
0.20552
0.209161
0.210336
0.210486
0.209323
0.205722
0.199314
0.18935
0.174374
0.151389
0.113276
0.068741
0.0276687
0
0
0
0.0306455
0.11136
0.150634
0.174002
0.189138
0.199181
0.205628
0.209248
0.210418
0.210644
0.209493
0.205931
0.199603
0.189797
0.175165
0.15306
0.117873
0.0814816
0.056456
0.0455435
0.0318331
0.0450863
0.0556749
0.11659
0.152423
0.174825
0.189598
0.199475
0.20584
0.20942
0.210578
0.211106
0.209987
0.206535
0.20043
0.191056
0.177313
0.15728
0.127715
0.101305
0.0858161
0.079552
0.0710074
0.0789845
0.0848046
0.127114
0.156855
0.177047
0.190885
0.200315
0.20645
0.209919
0.211043
0.211751
0.210677
0.207368
0.201551
0.192707
0.179966
0.161959
0.136799
0.116226
0.105358
0.101346
0.0964758
0.100771
0.104362
0.136516
0.161677
0.179762
0.192565
0.201451
0.207293
0.210615
0.211693
0.212542
0.21152
0.208377
0.202882
0.194608
0.182875
0.166715
0.145105
0.12874
0.120924
0.118239
0.115244
0.117649
0.119961
0.145005
0.166529
0.182721
0.194493
0.202797
0.208311
0.211464
0.21249
0.213444
0.212477
0.209513
0.204355
0.196658
0.185899
0.171417
0.152817
0.139735
0.133999
0.132116
0.130111
0.131575
0.133159
0.15283
0.171301
0.185784
0.196565
0.204283
0.209455
0.212428
0.213398
0.214425
0.213515
0.210732
0.205916
0.198787
0.188954
0.176006
0.160013
0.149518
0.145213
0.143839
0.142413
0.143388
0.144538
0.160093
0.17594
0.18887
0.198713
0.205856
0.210683
0.213472
0.214384
0.215455
0.214603
0.212001
0.20752
0.200941
0.191984
0.180437
0.166705
0.158242
0.15494
0.153907
0.152852
0.153555
0.154427
0.166822
0.180407
0.191924
0.200883
0.207471
0.21196
0.214566
0.21542
0.216512
0.215715
0.213292
0.209136
0.203082
0.194944
0.18467
0.172889
0.166018
0.163438
0.162641
0.161839
0.162378
0.16306
0.173022
0.184667
0.194903
0.203037
0.209095
0.213257
0.215684
0.216481
0.217573
0.216832
0.214579
0.210734
0.205177
0.1978
0.188676
0.178565
0.172944
0.170892
0.170266
0.169645
0.170074
0.170621
0.178702
0.188691
0.197775
0.205144
0.210702
0.21455
0.216805
0.217548
0.218624
0.217934
0.215845
0.212295
0.207203
0.200527
0.192432
0.183742
0.179103
0.177449
0.176948
0.17646
0.176812
0.177257
0.183874
0.192459
0.200514
0.207179
0.212269
0.215821
0.217912
0.218602
0.219649
0.219009
0.217073
0.2138
0.209141
0.203105
0.195923
0.188436
0.184576
0.183224
0.182818
0.182428
0.182722
0.183089
0.18856
0.195957
0.203101
0.209124
0.21378
0.217054
0.218991
0.219631
0.220637
0.220044
0.218253
0.215237
0.210976
0.20552
0.199144
0.192671
0.189432
0.188314
0.187981
0.187665
0.187913
0.188221
0.192786
0.199183
0.205524
0.210965
0.215222
0.218238
0.22003
0.220623
0.221581
0.221031
0.219374
0.216595
0.212699
0.207765
0.202095
0.196477
0.193735
0.192801
0.192523
0.192264
0.192476
0.192736
0.196581
0.202136
0.207774
0.212693
0.216585
0.219363
0.22102
0.22157
0.222475
0.221964
0.22043
0.217869
0.214303
0.209837
0.204782
0.199883
0.197542
0.196752
0.196519
0.196304
0.196487
0.196708
0.199978
0.204824
0.209849
0.214302
0.217863
0.220422
0.221956
0.222466
0.223312
0.222839
0.221417
0.219055
0.215787
0.211735
0.207215
0.20292
0.200905
0.200231
0.200033
0.199852
0.200011
0.200201
0.203006
0.207257
0.21175
0.215788
0.219051
0.221412
0.222832
0.223306
0.224092
0.223651
0.222333
0.220149
0.217149
0.213463
0.209407
0.205619
0.20387
0.203289
0.203119
0.202965
0.203104
0.203269
0.205697
0.209448
0.21348
0.217153
0.220148
0.222329
0.223647
0.224087
0.224812
0.224402
0.223176
0.221153
0.218391
0.215028
0.211372
0.208011
0.206479
0.205973
0.205826
0.205694
0.205816
0.20596
0.208081
0.211411
0.215046
0.218397
0.221154
0.223174
0.224399
0.224809
0.225472
0.225089
0.223946
0.222068
0.219517
0.216436
0.213125
0.210123
0.20877
0.208325
0.208196
0.208081
0.20819
0.208317
0.210186
0.213163
0.216455
0.219525
0.22207
0.223946
0.225088
0.225471
0.226072
0.225714
0.224646
0.222895
0.22053
0.217697
0.214681
0.211981
0.210776
0.210382
0.210267
0.210166
0.210264
0.210377
0.212039
0.214717
0.217716
0.22054
0.222899
0.224647
0.225714
0.226073
0.226615
0.226278
0.225276
0.223639
0.221438
0.218818
0.216056
0.21361
0.212527
0.212174
0.212072
0.211983
0.21207
0.212172
0.213663
0.216091
0.218838
0.221448
0.223644
0.225279
0.22628
0.226617
0.227102
0.226785
0.22584
0.224302
0.222244
0.21981
0.217264
0.215031
0.21405
0.213732
0.21364
0.213559
0.213639
0.213731
0.21508
0.217297
0.21983
0.222255
0.224309
0.225844
0.226787
0.227105
0.227536
0.227235
0.226341
0.22489
0.222956
0.220682
0.21832
0.216266
0.215369
0.215079
0.214995
0.214922
0.214995
0.215079
0.216311
0.218352
0.220701
0.222967
0.224897
0.226346
0.227238
0.227539
0.227918
0.227631
0.226782
0.225406
0.223579
0.221441
0.219236
0.217332
0.216505
0.216237
0.216161
0.216094
0.216161
0.216239
0.217374
0.219266
0.221461
0.223591
0.225414
0.226787
0.227635
0.227922
0.228251
0.227977
0.227166
0.225855
0.224119
0.222097
0.220023
0.218245
0.217475
0.217227
0.217156
0.217094
0.217157
0.217229
0.218284
0.220053
0.222117
0.224131
0.225863
0.227172
0.227982
0.228255
0.228538
0.228275
0.227496
0.22624
0.224581
0.222658
0.220693
0.219018
0.218296
0.218064
0.217997
0.217939
0.217999
0.218066
0.219056
0.220722
0.222677
0.224594
0.226248
0.227503
0.22828
0.228543
0.228781
0.228527
0.227776
0.226565
0.224971
0.223129
0.221255
0.219665
0.218982
0.218762
0.218699
0.218645
0.218701
0.218765
0.219701
0.221283
0.223148
0.224984
0.226574
0.227783
0.228533
0.228787
0.228983
0.228736
0.228007
0.226835
0.225294
0.223517
0.221717
0.220195
0.219543
0.219333
0.219273
0.219222
0.219275
0.219336
0.220229
0.221744
0.223536
0.225307
0.226844
0.228015
0.228742
0.228989
0.229145
0.228904
0.228193
0.227051
0.225552
0.223828
0.222086
0.220617
0.219989
0.219788
0.21973
0.21968
0.219732
0.219791
0.220651
0.222112
0.223847
0.225565
0.22706
0.228201
0.228911
0.229151
0.229269
0.229033
0.228336
0.227216
0.225749
0.224065
0.222367
0.220939
0.220329
0.220133
0.220077
0.220029
0.220079
0.220137
0.220971
0.222393
0.224084
0.225762
0.227226
0.228343
0.22904
0.229276
0.229357
0.229124
0.228436
0.227333
0.225888
0.224232
0.222565
0.221164
0.220567
0.220376
0.220321
0.220274
0.220323
0.220379
0.221196
0.22259
0.224251
0.225902
0.227342
0.228444
0.229131
0.229364
0.229409
0.229178
0.228496
0.227402
0.225971
0.224331
0.222682
0.221298
0.220708
0.22052
0.220465
0.220419
0.220468
0.220523
0.22133
0.222707
0.22435
0.225984
0.227412
0.228504
0.229185
0.229416
0.229427
0.229196
0.228516
0.227425
0.225998
0.224364
0.222721
0.221343
0.220755
0.220567
0.220513
0.220467
0.220516
0.220571
0.221374
0.222746
0.224383
0.226012
0.227435
0.228524
0.229203
0.229433
0.229835
0.229619
0.228983
0.227966
0.226641
0.225133
0.223627
0.222374
0.221843
0.221673
0.221624
0.221583
0.221627
0.221677
0.222403
0.223651
0.225151
0.226655
0.227976
0.228991
0.229626
0.229842
0.230223
0.23002
0.229426
0.228477
0.227247
0.225855
0.224475
0.223334
0.222853
0.222699
0.222656
0.222618
0.222658
0.222703
0.223361
0.224497
0.225873
0.227261
0.228488
0.229435
0.230028
0.23023
0.230589
0.2304
0.229843
0.228958
0.227816
0.22653
0.225263
0.224225
0.223788
0.223649
0.223609
0.223575
0.223612
0.223653
0.224249
0.225285
0.226547
0.22783
0.228969
0.229853
0.230408
0.230598
0.230934
0.230756
0.230235
0.229409
0.228347
0.227158
0.225994
0.225046
0.224649
0.224523
0.224487
0.224457
0.22449
0.224527
0.225068
0.226014
0.227175
0.22836
0.22942
0.230245
0.230765
0.230943
0.231256
0.231089
0.2306
0.229828
0.228839
0.227738
0.226668
0.225801
0.225439
0.225324
0.225291
0.225264
0.225294
0.225328
0.225821
0.226687
0.227755
0.228853
0.22984
0.230611
0.231098
0.231265
0.231554
0.231397
0.230939
0.230215
0.229294
0.228272
0.227284
0.226489
0.226159
0.226054
0.226024
0.225999
0.226027
0.226058
0.226508
0.227302
0.228288
0.229307
0.230227
0.230949
0.231407
0.231564
0.231828
0.231681
0.231249
0.230571
0.229709
0.228758
0.227845
0.227113
0.22681
0.226714
0.226687
0.226664
0.226689
0.226718
0.227131
0.227862
0.228774
0.229722
0.230583
0.23126
0.231691
0.231838
0.232078
0.231939
0.231532
0.230893
0.230085
0.229198
0.22835
0.227674
0.227395
0.227307
0.227282
0.227261
0.227284
0.22731
0.22769
0.228366
0.229213
0.230098
0.230905
0.231543
0.231949
0.232089
0.232303
0.232171
0.231786
0.231182
0.230422
0.22959
0.228799
0.228173
0.227914
0.227833
0.22781
0.22779
0.227812
0.227836
0.228188
0.228815
0.229605
0.230435
0.231195
0.231797
0.232182
0.232314
0.232503
0.232377
0.232011
0.231438
0.230719
0.229936
0.229195
0.22861
0.228369
0.228294
0.228272
0.228254
0.228274
0.228297
0.228624
0.22921
0.229951
0.230733
0.231451
0.232022
0.232388
0.232514
0.232677
0.232556
0.232206
0.231661
0.230977
0.230236
0.229536
0.228987
0.228762
0.228691
0.228671
0.228654
0.228673
0.228694
0.229001
0.229551
0.23025
0.23099
0.231673
0.232218
0.232567
0.232687
0.232824
0.232708
0.232372
0.231849
0.231195
0.230489
0.229825
0.229305
0.229092
0.229025
0.229006
0.22899
0.229008
0.229028
0.229318
0.229839
0.230503
0.231209
0.231862
0.232384
0.23272
0.232835
0.232945
0.232833
0.232508
0.232004
0.231374
0.230696
0.23006
0.229563
0.229361
0.229297
0.229279
0.229264
0.229281
0.2293
0.229576
0.230074
0.230709
0.231387
0.232016
0.23252
0.232845
0.232956
0.233039
0.232931
0.232614
0.232124
0.231513
0.230856
0.230242
0.229764
0.229569
0.229508
0.22949
0.229476
0.229492
0.229511
0.229776
0.230256
0.23087
0.231526
0.232136
0.232626
0.232942
0.233051
0.233107
0.233
0.23269
0.23221
0.231613
0.230971
0.230373
0.229907
0.229718
0.229658
0.229641
0.229627
0.229643
0.229661
0.229919
0.230386
0.230985
0.231626
0.232222
0.232702
0.233012
0.233118
0.233148
0.233042
0.232736
0.232262
0.231672
0.23104
0.230451
0.229993
0.229807
0.229748
0.229731
0.229718
0.229733
0.229751
0.230005
0.230464
0.231053
0.231685
0.232274
0.232748
0.233054
0.233159
0.233161
0.233056
0.232751
0.232279
0.231692
0.231063
0.230477
0.230022
0.229836
0.229778
0.229761
0.229748
0.229763
0.229781
0.230033
0.23049
0.231076
0.231705
0.232291
0.232763
0.233068
0.233173
0.210602
0.209441
0.205845
0.199447
0.189496
0.174536
0.151533
0.113176
0.0681763
0.0275124
0
0
0
0.0301535
0.111206
0.150758
0.174158
0.189283
0.199312
0.205751
0.209366
0.210534
0.210629
0.209469
0.20588
0.199495
0.189572
0.174672
0.151826
0.113939
0.0695925
0.0285067
0
0
0
0.0315837
0.112011
0.151069
0.174301
0.189361
0.199362
0.205787
0.209395
0.210561
0.210709
0.209555
0.205985
0.199641
0.189798
0.175074
0.152678
0.116202
0.0744382
0.03345
0
0
0
0.0376657
0.114458
0.151978
0.174719
0.189594
0.19951
0.205893
0.209482
0.210641
0.210866
0.209724
0.206192
0.199926
0.190237
0.17584
0.154262
0.120403
0.0858479
0.0608667
0.0476161
0.0256954
0.0474515
0.06086
0.11922
0.153666
0.175515
0.190043
0.1998
0.206102
0.209652
0.2108
0.211323
0.210213
0.206789
0.200741
0.191471
0.177923
0.158273
0.129405
0.103026
0.0853101
0.076215
0.058525
0.0762088
0.085379
0.128775
0.157864
0.177666
0.191304
0.200628
0.206706
0.210146
0.211261
0.211962
0.210896
0.207614
0.201846
0.19309
0.180504
0.162749
0.137832
0.116459
0.103378
0.0976915
0.0892077
0.0975715
0.103099
0.137471
0.162467
0.180305
0.192952
0.201748
0.207539
0.210835
0.211905
0.212747
0.211731
0.208612
0.20316
0.194959
0.183341
0.167329
0.145678
0.128301
0.118894
0.115327
0.110871
0.114991
0.118267
0.145499
0.167135
0.183189
0.194845
0.203076
0.208546
0.211676
0.212695
0.213641
0.21268
0.209735
0.204615
0.196976
0.186299
0.171887
0.153088
0.139061
0.132286
0.129933
0.127282
0.129496
0.131555
0.153037
0.171758
0.186184
0.196885
0.204544
0.209679
0.212631
0.213595
0.214613
0.213708
0.210943
0.206157
0.199074
0.189295
0.17636
0.160096
0.148817
0.143848
0.142211
0.140464
0.141782
0.143176
0.16013
0.176281
0.18921
0.199
0.206098
0.210894
0.213666
0.214573
0.215635
0.214787
0.2122
0.207744
0.201199
0.192274
0.180701
0.16668
0.1576
0.153871
0.152681
0.151447
0.152315
0.153321
0.166765
0.18066
0.192212
0.201141
0.207695
0.212159
0.214751
0.2156
0.216683
0.21589
0.213479
0.209343
0.203313
0.19519
0.184868
0.172807
0.165464
0.162602
0.161707
0.160796
0.161418
0.162179
0.17292
0.184855
0.195148
0.203268
0.209303
0.213444
0.215859
0.216653
0.217736
0.216998
0.214755
0.210926
0.205385
0.198011
0.188825
0.17846
0.17248
0.170239
0.169547
0.168855
0.16933
0.169926
0.178583
0.188832
0.197984
0.205351
0.210894
0.214726
0.216972
0.217711
0.218778
0.218092
0.21601
0.212472
0.207391
0.200709
0.192546
0.183632
0.178723
0.176937
0.176392
0.175854
0.176233
0.176711
0.183756
0.192567
0.200693
0.207366
0.212446
0.215987
0.21807
0.218757
0.219795
0.219158
0.217229
0.213964
0.209311
0.203263
0.196013
0.188333
0.184268
0.182822
0.182385
0.181961
0.182271
0.182662
0.188453
0.196043
0.203257
0.209293
0.213945
0.21721
0.21914
0.219778
0.220777
0.220185
0.218399
0.215389
0.211131
0.205659
0.199218
0.192581
0.189186
0.188
0.187644
0.187303
0.187563
0.187887
0.192694
0.199253
0.205661
0.211119
0.215375
0.218384
0.220171
0.220763
0.221714
0.221166
0.219512
0.216738
0.212841
0.20789
0.202158
0.196402
0.19354
0.192555
0.192261
0.191984
0.192204
0.192476
0.196506
0.202197
0.207896
0.212835
0.216728
0.219501
0.221154
0.221703
0.222601
0.222092
0.220561
0.218003
0.214435
0.209949
0.204839
0.199824
0.19739
0.196562
0.196316
0.196088
0.196277
0.196507
0.199918
0.204879
0.20996
0.214432
0.217996
0.220553
0.222084
0.222593
0.223433
0.222961
0.221542
0.219181
0.215909
0.211838
0.207269
0.202876
0.200788
0.200084
0.199877
0.199686
0.199849
0.200046
0.202962
0.207309
0.211852
0.21591
0.219177
0.221536
0.222954
0.223427
0.224208
0.223768
0.222451
0.220269
0.217263
0.21356
0.209459
0.205589
0.203782
0.203177
0.203
0.202839
0.202982
0.203152
0.205667
0.209498
0.213576
0.217267
0.220267
0.222448
0.223764
0.224204
0.224923
0.224514
0.223289
0.221267
0.218499
0.215119
0.211423
0.207993
0.206414
0.20589
0.205737
0.205599
0.205725
0.205873
0.208064
0.211462
0.215136
0.218505
0.221267
0.223287
0.224511
0.224921
0.225579
0.225197
0.224055
0.222176
0.219619
0.216523
0.213176
0.210116
0.208724
0.208266
0.208132
0.208012
0.208124
0.208255
0.21018
0.213213
0.216541
0.219627
0.222178
0.224055
0.225196
0.225578
0.226176
0.225818
0.22475
0.222999
0.220629
0.21778
0.214733
0.211983
0.210746
0.21034
0.210223
0.210118
0.210217
0.210334
0.212041
0.214769
0.217799
0.220638
0.223003
0.224752
0.225819
0.226176
0.226716
0.226379
0.225377
0.223739
0.221532
0.218899
0.216109
0.21362
0.212511
0.212148
0.212043
0.21195
0.21204
0.212144
0.213673
0.216143
0.218918
0.221542
0.223744
0.22538
0.226381
0.226717
0.2272
0.226882
0.225938
0.224399
0.222336
0.219889
0.217318
0.215048
0.214045
0.213718
0.213623
0.21354
0.213622
0.213716
0.215097
0.217351
0.219908
0.222347
0.224405
0.225942
0.226885
0.227202
0.227631
0.22733
0.226436
0.224984
0.223045
0.220759
0.218374
0.216288
0.215372
0.215075
0.214989
0.214914
0.214989
0.215075
0.216334
0.218406
0.220778
0.223056
0.224991
0.226441
0.227333
0.227634
0.228011
0.227724
0.226875
0.225498
0.223666
0.221517
0.219291
0.217359
0.216515
0.216242
0.216163
0.216094
0.216163
0.216242
0.217401
0.219321
0.221536
0.223678
0.225505
0.22688
0.227728
0.228015
0.228342
0.228068
0.227257
0.225944
0.224204
0.222172
0.220079
0.218275
0.217491
0.217238
0.217165
0.217102
0.217166
0.217239
0.218315
0.220109
0.222191
0.224216
0.225952
0.227263
0.228073
0.228347
0.228627
0.228364
0.227586
0.226328
0.224665
0.222732
0.22075
0.219052
0.218317
0.21808
0.218012
0.217953
0.218013
0.218082
0.21909
0.220779
0.222751
0.224678
0.226336
0.227592
0.22837
0.228633
0.228869
0.228615
0.227864
0.226652
0.225054
0.223202
0.221313
0.219701
0.219006
0.218782
0.218718
0.218662
0.218719
0.218785
0.219737
0.22134
0.223221
0.225067
0.226661
0.227871
0.228621
0.228875
0.22907
0.228823
0.228094
0.22692
0.225375
0.22359
0.221775
0.220233
0.21957
0.219357
0.219296
0.219243
0.219297
0.219359
0.220268
0.221802
0.223609
0.225388
0.226929
0.228101
0.228829
0.229076
0.229231
0.22899
0.228279
0.227135
0.225633
0.2239
0.222144
0.220657
0.220019
0.219814
0.219755
0.219704
0.219757
0.219817
0.220691
0.22217
0.223919
0.225646
0.227145
0.228287
0.228997
0.229237
0.229355
0.229119
0.228421
0.2273
0.225829
0.224137
0.222425
0.220979
0.22036
0.220161
0.220104
0.220055
0.220106
0.220164
0.221012
0.222451
0.224156
0.225842
0.22731
0.228429
0.229125
0.229361
0.229442
0.229209
0.228521
0.227416
0.225968
0.224304
0.222623
0.221206
0.220599
0.220405
0.220349
0.220301
0.220351
0.220408
0.221238
0.222649
0.224322
0.225981
0.227426
0.228529
0.229216
0.229449
0.229494
0.229263
0.228581
0.227485
0.226051
0.224403
0.222741
0.22134
0.220742
0.220549
0.220494
0.220447
0.220496
0.220553
0.221372
0.222766
0.224421
0.226064
0.227495
0.228589
0.22927
0.229501
0.229512
0.229281
0.228601
0.227508
0.226078
0.224436
0.22278
0.221385
0.220789
0.220597
0.220543
0.220496
0.220545
0.220601
0.221416
0.222805
0.224454
0.226091
0.227518
0.228608
0.229288
0.229518
0.229918
0.229702
0.229065
0.228047
0.226719
0.225204
0.223687
0.22242
0.221881
0.221709
0.221659
0.221617
0.221662
0.221712
0.222449
0.223711
0.225222
0.226732
0.228057
0.229074
0.229709
0.229925
0.230303
0.230101
0.229506
0.228556
0.227323
0.225925
0.224535
0.223383
0.222895
0.22274
0.222695
0.222657
0.222698
0.222743
0.22341
0.224558
0.225943
0.227337
0.228567
0.229515
0.230109
0.230311
0.230668
0.230478
0.229922
0.229035
0.22789
0.226599
0.225324
0.224276
0.223834
0.223693
0.223653
0.223619
0.223655
0.223697
0.2243
0.225346
0.226616
0.227904
0.229046
0.229931
0.230487
0.230676
0.231011
0.230833
0.230312
0.229484
0.22842
0.227226
0.226056
0.2251
0.224698
0.224571
0.224534
0.224504
0.224537
0.224574
0.225122
0.226076
0.227243
0.228434
0.229496
0.230321
0.230842
0.231019
0.231331
0.231164
0.230675
0.229902
0.228912
0.227806
0.22673
0.225856
0.225491
0.225375
0.225342
0.225314
0.225344
0.225378
0.225876
0.226749
0.227823
0.228925
0.229914
0.230686
0.231174
0.23134
0.231628
0.231471
0.231012
0.230288
0.229365
0.228339
0.227347
0.226546
0.226213
0.226107
0.226077
0.226051
0.226079
0.22611
0.226565
0.227365
0.228355
0.229378
0.2303
0.231023
0.231481
0.231637
0.231901
0.231753
0.231322
0.230642
0.229779
0.228825
0.227907
0.227171
0.226866
0.226769
0.226742
0.226719
0.226744
0.226773
0.227189
0.227925
0.228841
0.229792
0.230654
0.231332
0.231763
0.231911
0.23215
0.23201
0.231603
0.230964
0.230154
0.229264
0.228413
0.227733
0.227452
0.227363
0.227338
0.227317
0.22734
0.227367
0.227749
0.228429
0.22928
0.230168
0.230976
0.231614
0.232021
0.23216
0.232374
0.232241
0.231856
0.231252
0.23049
0.229657
0.228863
0.228232
0.227973
0.227891
0.227867
0.227848
0.227869
0.227894
0.228248
0.228878
0.229671
0.230504
0.231264
0.231867
0.232252
0.232384
0.232572
0.232446
0.23208
0.231507
0.230787
0.230002
0.229258
0.22867
0.228429
0.228352
0.228331
0.228313
0.228333
0.228356
0.228685
0.229273
0.230017
0.2308
0.231519
0.232091
0.232457
0.232583
0.232745
0.232625
0.232275
0.231729
0.231044
0.230301
0.2296
0.229048
0.228822
0.22875
0.22873
0.228713
0.228732
0.228753
0.229062
0.229614
0.230316
0.231058
0.231741
0.232286
0.232636
0.232756
0.232892
0.232776
0.23244
0.231917
0.231262
0.230554
0.229888
0.229366
0.229152
0.229085
0.229066
0.22905
0.229068
0.229088
0.229379
0.229902
0.230568
0.231275
0.231929
0.232452
0.232787
0.232903
0.233012
0.2329
0.232576
0.232071
0.23144
0.230761
0.230123
0.229625
0.229422
0.229358
0.229339
0.229324
0.229341
0.229361
0.229638
0.230137
0.230775
0.231454
0.232083
0.232587
0.232912
0.233024
0.233106
0.232997
0.232681
0.23219
0.231579
0.230921
0.230306
0.229826
0.22963
0.229569
0.229551
0.229537
0.229553
0.229572
0.229838