<?xml version="1.0"?>
<VTKFile type="RectilinearGrid" version="0.1" byte_order="LittleEndian">
<RectilinearGrid WholeExtent="0 45 0 44 0 32">
<Piece Extent="0 45 0 44 0 32">
<PointData>
<DataArray type="Float32" Name="phi" format="ascii">
-0
-0
-0
-0
-0
-0
0
0
0
0
0
0
0
0
0
0
0
0
0
0
0
0
0
0
0
0
0
0
0
0
0
0
0
0
0
0
0
0
0
0
-0
-0
-0
-0
-0
-0
-0
-0
-0
-0
0
0
0
0
0
0
0
0
0
0
0
0
0
0
0
0
0
0
0
0
0
0
0
0
0
0
0
0
0
0
0
0
0
0
0
0
0
0
-0
-0
-0
-0
-0
-0
-0
0
0
0
0
0
0
0
0
0
0
0
0
0
0
0
0
0
0
0
0
0
0
0
0
0
0
0
0
0
0
0
0
0
0
0
0
0
0
0
0
-0
-0
-0
-0
-0
0
0
0
0
0
0
0
0
0
0
0
0
0
0
0
0
0
0
0
0
0
0
0
0
0
0
0
0
0
0
0
0
0
0
0
0
0
0
0
0
0
0
-0
-0
-0
0
0
0
0
0
0
0
0
0
0
0
0
0
0
0
0
0
0
0
0
0
0
0
0
0
0
0
0
0
0
0
0
0
0
0
0
0
0
0
0
0
0
0
0
-0
-0
0
0
0
0
0
0
0
0
0
0
0
0
0
0
0
0
0
0
0
0
0
0
0
0
0
0
0
0
0
0
0
0
0
0
0
0
0
0
0
0
0
0
0
0
-0
0
0
0
0
0
0
0
0
0
0
0
0
0
0
0
0
0
0
0
0
0
0
0
0
0
0
0
0
0
0
0
0
0
0
0
0
0
0
0
0
0
0
0
0
0
0
0
0
0
0
0
0
0
0
0
0
0
0
0
0
0
0
0
0
0
0
0
0
0
0
0
0
0
0
0
0
0
0
0
0
0
0
0
0
0
0
0
0
0
0
0
0
0
0
0
0
0
0
0
0
0
0
0
0
0
0
0
0
0
0
0
0
0
0
0
0
0
0
0
0
0
0
0
0
0
0
0
0
0
0
0
0
0
0
0
0
0
0
0
0
0
0
0
0
0
0
0
0
0
0
0
0
0
0
0
0
0
0
0
0
0
0
0
0
0
0
0
0
0
0
0
0
0
0
0
0
0
0
0
0
0
0
0
0
0
0
0
0
0
0
0
0
0
0
0
0
0
0
0
0
0
0
0
0
0
0
0
0
0
0
0
0
0
0
0
0
0
0
0
0
0
0
0
0
0
0
0
0
0
0
0
0
0
0
0
0
0
0
0
0
0
0
0
0
0
0
0
0
0
0
0
0
0
0
0
0
0
0
0
0
0
0
0
0
0
0
0
0
0
0
0
0
0
0
0
0
0
0
0
0
0
0
0
0
0
0
0
0
0
0
0
0
0
0
0
0
0
0
0
0
0
0
0
0
0
0
0
0
0
0
0
0
0
0
0
0
0
0
0
0
0
0
0
0
0
0
0
0
0
0
0
0
0
0
0
0
0
0
0
0
0
0
0
0
0
0
0
0
0
0
0
0
0
0
0
0
0
0
0
0
0
0
0
0
0
0
0
0
0
0
0
0
0
0
0
0
0
0
0
0
0
0
0
0
0
0
0
0
0
0
0
0
0
0
0
0
0
0
0
0
0
0
0
0
0
0
0
0
0
0
0
0
0
0
0
0
0
0
0
0
0
0
0
0
0
0
0
0
0
0
0
0
0
0
0
0
0
0
0
0
0
0
0
0
0
0
0
0
0
0
0
0
0
0
0
0
0
0
0
0
0
0
0
0
0
0
0
0
0
0
0
0
0
0
0
0
0
0
0
0
0
0
0
0
0
0
0
0
0
0
0
0
0
0
0
0
0
0
0
0
0
0
0
0
0
0
0
0
0
0
0
0
0
0
0
0
0
0
0
0
0
0
0
0
0
0
0
0
0
0
0
0
0
0
0
0
0
0
0
0
0
0
0
0
0
0
0
0
0
0
0
0
0
0
0
0
0
0
0
0
0
0
0
0
0
0
0
0
0
0
0
0
0
0
0
0
0
0
0
0
0
0
0
0
0
0
0
0
0
0
0
0
0
0
0
0
0
0
0
0
0
0
0
0
0
0
0
0
0
0
0
0
0
0
0
0
0
0
0
0
0
0
0
0
0
0
0
0
0
0
0
0
0
0
0
0
0
0
0
0
0
0
0
0
0
0
0
0
0
0
0
0
0
0
0
0
0
0
0
0
0
0
0
0
0
0
0
0
0
0
0
0
0
0
0
0
0
0
0
0
0
0
0
0
0
0
0
0
0
0
0
0
0
0
0
0
0
0
0
0
0
0
0
0
0
0
0
0
0
0
0
0
0
0
0
0
0
0
0
0
0
0
0
0
0
0
0
0
0
0
0
0
0
0
0
0
0
0
0
0
0
0
0
0
0
0
0
0
0
0
0
0
0
0
0
0
0
0
0
0
0
0
0
0
0
0
0
0
0
0
0
0
0
0
0
0
0
0
0
0
0
0
0
0
0
0
0
0
0
0
0
0
0
0
0
0
0
0
0
0
0
0
0
0
0
0
0
0
0
0
0
0
0
0
0
0
0
0
0
0
0
0
0
0
0
0
0
0
0
0
0
0
0
0
0
0
0
0
0
0
0
0
0
0
0
0
0
0
0
0
0
0
0
0
0
0
0
0
0
0
0
0
0
0
0
0
0
0
0
0
0
0
0
0
0
0
0
0
0
0
0
0
0
0
0
0
0
0
0
0
0
0
0
0
0
0
0
0
0
0
0
0
0
0
0
0
0
0
0
0
0
0
0
0
0
0
0
0
0
0
0
0
0
0
0
0
0
0
0
0
0
0
0
0
0
0
0
0
0
0
0
0
0
0
0
0
0
0
0
0
0
0
0
0
0
0
0
0
0
0
0
0
0
0
0
0
0
0
0
0
0
0
0
0
0
0
0
0
0
0
0
0
0
0
0
0
0
0
0
0
0
0
0
0
0
0
0
0
0
0
0
0
0
0
0
0
0
0
0
0
0
0
0
0
0
0
0
0
0
0
0
0
0
0
0
0
0
0
0
0
0
0
0
0
0
0
0
0
0
0
0
0
0
0
0
0
0
0
0
0
0
0
0
0
0
0
0
0
0
0
0
0
0
0
0
0
0
0
0
0
0
0
0
0
0
0
0
0
0
0
0
0
0
0
0
0
0
0
0
0
0
0
0
0
0
0
0
0
0
0
0
0
0
0
0
0
0
0
0
0
0
0
0
0
0
0
0
0
0
0
0
0
0
0
0
0
0
0
0
0
0
0
0
0
0
0
0
0
0
0
0
0
0
0
0
0
0
0
0
0
0
0
0
0
0
0
0
0
0
0
0
0
0
0
0
0
0
0
0
0
0
0
0
0
0
0
0
0
0
0
0
0
0
0
0
0
0
0
0
0
0
0
0
0
0
0
0
0
0
0
0
0
0
0
0
0
0
0
0
0
0
0
0
0
0
0
0
0
0
0
0
0
0
0
0
0
0
0
0
0
0
0
0
0
0
0
0
0
0
0
0
0
0
0
0
0
0
0
0
0
0
0
0
0
0
0
0
0
0
0
0
0
0
0
0
0
0
0
0
0
0
0
0
0
0
0
0
0
0
0
0
0
0
0
0
0
0
0
0
0
0
0
0
0
0
0
0
0
0
0
0
0
0
0
0
0
0
0
0
0
0
0
0
0
0
0
0
0
0
0
0
0
0
0
0
0
0
0
0
0
0
0
0
0
0
0
0
0
0
0
0
0
0
0
0
0
0
0
0
0
0
0
0
0
0
0
0
0
0
0
0
0
0
0
0
0
0
0
0
0
0
0
0
0
0
0
0
0
0
0
0
0
0
0
0
0
0
0
0
0
0
0
0
0
0
0
0
0
0
0
0
0
0
0
0
0
0
0
0
0
0
0
0
0
0
0
0
0
0
0
0
0
0
0
0
0
0
0
0
0
0
0
0
0
0
0
0
0
0
0
0
0
0
0
0
0
0
0
0
0
0
0
0
0
0
0
0
0
0
0
0
0
0
0
0
0
0
0
0
0
0
0
0
0
0
0
0
0
0
0
0
0
0
0
0
0
0
0
0
0
0
0
0
0
0
0
0
0
0
0
0
0
0
0
0
0
0
0
0
0
0
0
0
0
0
0
0
0
-0
0
0
0
0
0
0
0
0
0
0
0
0
0
0
0
0
0
0
0
0
0
0
0
0
0
0
0
0
0
0
0
0
0
0
0
0
0
0
0
0
0
0
0
0
-0
-0
0
0
0
0
0
0
0
0
0
0
0
0
0
0
0
0
0
0
0
0
0
0
0
0
0
0
0
0
0
0
0
0
0
0
0
0
0
0
0
0
0
0
0
0
-0
-0
-0
0
0
0
0
0
0
0
0
0
0
0
0
0
0
0
0
0
0
0
0
0
0
0
0
0
0
0
0
0
0
0
0
0
0
0
0
0
0
0
0
0
0
-0
-0
-0
-0
-0
0
0
0
0
0
0
0
0
0
0
0
0
0
0
0
0
0
0
0
0
0
0
0
0
0
0
0
0
0
0
0
0
0
0
0
0
0
0
0
0
-0
-0
-0
-0
-0
-0
-0
0
0
0
0
0
0
0
0
0
0
0
0
0
0
0
0
0
0
0
0
0
0
0
0
0
0
0
0
0
0
0
0
0
0
0
0
0
0
-0
-0
-0
-0
-0
-0
-0
-0
-0
-0
0
0
0
0
0
0
0
0
0
0
0
0
0
0
0
0
0
0
0
0
0
0
0
0
0
0
0
0
0
0
0
0
0
0
-0
-0
-0
-0
-0
-0
-0.00112299
-0.000880945
-0.000653781
-0.000443806
-0.00025301
-8.29123e-05
6.55829e-05
0.000192271
0.000297672
0.000382981
0.000449961
0.000500783
0.000507915
0.000537861
0.000563681
0.000575977
0.000577193
0.00058066
0.000591026
0.000596746
0.000599463
0.000600473
0.000600706
0.000600722
0.000600706
0.000600473
0.000599463
0.000596746
0.000591026
0.00058066
0.000577193
0.000563681
0.000537861
0.000507915
0.000500783
0.000449961
0.000382981
0.000297672
0.000192271
6.55829e-05
-8.29123e-05
-0.00025301
-0.000443806
-0.000653781
-0.000880945
-0.00112299
-0.000880945
-0.000612775
-0.000358357
-0.000120549
9.79883e-05
0.000295
0.000468835
0.000618619
0.000744347
0.000846893
0.000927919
0.00098971
0.000998384
0.00103492
0.00106652
0.00108158
0.00108307
0.00108731
0.00110003
0.00110706
0.00111039
0.00111163
0.00111192
0.00111194
0.00111192
0.00111163
0.00111039
0.00110706
0.00110003
0.00108731
0.00108306
0.00106651
0.00103492
0.000998381
0.000989706
0.000927915
0.00084689
0.000744345
0.000618617
0.000468833
0.000294998
9.79873e-05
-0.00012055
-0.000358357
-0.000612775
-0.000880945
-0.000653781
-0.000358357
-7.48928e-05
0.000193249
0.000442726
0.000670446
0.000873843
0.00105114
0.00120155
0.00132537
0.00142398
0.00149966
0.00151032
0.00155529
0.00159432
0.00161296
0.0016148
0.00162006
0.00163583
0.00164455
0.00164869
0.00165023
0.00165059
0.00165061
0.00165059
0.00165023
0.00164869
0.00164455
0.00163583
0.00162006
0.0016148
0.00159431
0.00155529
0.00151031
0.00149966
0.00142398
0.00132537
0.00120154
0.00105114
0.00087384
0.000670443
0.000442724
0.000193248
-7.48935e-05
-0.000358357
-0.000653781
-0.000443806
-0.000120549
0.000193249
0.000493842
0.000777259
0.00103955
0.00127708
0.00148695
0.00166725
0.00181738
0.00193813
0.00203155
0.00204474
0.00210063
0.00214933
0.00217265
0.00217496
0.00218156
0.00220134
0.00221229
0.0022175
0.00221944
0.00221988
0.00221991
0.00221988
0.00221944
0.0022175
0.00221229
0.00220134
0.00218155
0.00217496
0.00214932
0.00210062
0.00204473
0.00203154
0.00193812
0.00181737
0.00166724
0.00148694
0.00127708
0.00103954
0.000777257
0.000493841
0.000193248
-0.00012055
-0.000443806
-0.00025301
9.7988e-05
0.000442725
0.000777259
0.00109715
0.00139765
0.00167405
0.00192205
0.00213834
0.00232095
0.00246963
0.00258585
0.00260235
0.00267248
0.00273394
0.00276348
0.00276641
0.00277477
0.00279992
0.00281386
0.00282049
0.00282296
0.00282353
0.00282357
0.00282353
0.00282296
0.00282049
0.00281385
0.00279992
0.00277477
0.0027664
0.00273393
0.00267246
0.00260233
0.00258584
0.00246962
0.00232094
0.00213833
0.00192205
0.00167404
0.00139765
0.00109715
0.000777257
0.000442724
9.79877e-05
-0.00025301
-8.29123e-05
0.000294999
0.000670445
0.00103955
0.00139765
0.00173944
0.00205919
0.00235117
0.0026103
0.00283278
0.00301669
0.00316237
0.00318317
0.00327207
0.00335058
0.00338848
0.00339225
0.003403
0.00343543
0.00345344
0.00346203
0.00346522
0.00346596
0.00346601
0.00346596
0.00346522
0.00346203
0.00345344
0.00343543
0.003403
0.00339224
0.00335056
0.00327205
0.00318314
0.00316234
0.00301668
0.00283276
0.00261028
0.00235116
0.00205918
0.00173944
0.00139765
0.00103954
0.000670444
0.000294999
-8.29123e-05
6.55829e-05
0.000468835
0.000873842
0.00127708
0.00167404
0.00205918
0.00242605
0.00276762
0.0030769
0.00334776
0.00357593
0.0037597
0.00378615
0.0039
0.00400155
0.0040509
0.00405581
0.00406986
0.00411236
0.00413604
0.00414734
0.00415155
0.00415252
0.00415259
0.00415252
0.00415155
0.00414734
0.00413604
0.00411236
0.00406986
0.00405581
0.00400152
0.00389997
0.00378613
0.00375968
0.00357591
0.00334775
0.00307688
0.00276761
0.00242605
0.00205918
0.00167404
0.00127708
0.000873842
0.000468835
6.55829e-05
0.000192271
0.000618618
0.00105114
0.00148695
0.00192205
0.00235116
0.00276762
0.00316349
0.00353003
0.00385857
0.0041417
0.00437461
0.00440849
0.00455565
0.00468871
0.00475395
0.00476046
0.00477912
0.00483583
0.00486757
0.00488275
0.00488841
0.00488972
0.00488981
0.00488972
0.00488842
0.00488276
0.00486758
0.00483584
0.00477913
0.00476047
0.00468866
0.00455561
0.00440846
0.00437458
0.00414167
0.00385855
0.00353002
0.00316348
0.00276761
0.00235116
0.00192205
0.00148695
0.00105114
0.000618619
0.000192271
0.000297672
0.000744346
0.00120154
0.00166725
0.00213833
0.00261029
0.00307689
0.00353003
0.00395983
0.00435525
0.00470532
0.00500099
0.0050446
0.00523626
0.00541279
0.00550044
0.00550923
0.00553445
0.00561167
0.00565516
0.00567604
0.00568383
0.00568563
0.00568575
0.00568563
0.00568384
0.00567605
0.00565518
0.0056117
0.00553449
0.00550927
0.00541273
0.00523621
0.00504456
0.00500095
0.00470529
0.00435523
0.00395982
0.00353002
0.00307689
0.00261029
0.00213834
0.00166725
0.00120155
0.000744347
0.000297672
0.000382981
0.000846892
0.00132537
0.00181738
0.00232095
0.00283277
0.00334776
0.00385857
0.00435524
0.00482528
0.00525446
0.00562866
0.00568485
0.00593557
0.00617229
0.00629194
0.00630402
0.00633877
0.00644622
0.00650733
0.00653681
0.00654785
0.0065504
0.00655057
0.00655041
0.00654786
0.00653684
0.00650737
0.00644629
0.00633886
0.00630411
0.00617221
0.00593551
0.0056848
0.00562861
0.00525443
0.00482527
0.00435524
0.00385856
0.00334776
0.00283277
0.00232095
0.00181738
0.00132537
0.000846893
0.000382981
0.000449961
0.000927917
0.00142398
0.00193812
0.00246962
0.00301669
0.00357592
0.00414168
0.00470531
0.00525445
0.00577299
0.00624215
0.00631423
0.00664186
0.00696147
0.00712715
0.00714403
0.0071928
0.00734587
0.0074342
0.00747716
0.0074933
0.00749704
0.00749729
0.00749704
0.00749332
0.00747722
0.00743429
0.00734601
0.00719299
0.00714424
0.00696137
0.00664178
0.00631417
0.0062421
0.00577296
0.00525444
0.00470531
0.00414169
0.00357593
0.00301669
0.00246963
0.00193813
0.00142398
0.000927918
0.000449961
0.000500783
0.000989708
0.00149966
0.00203154
0.00258584
0.00316235
0.00375969
0.00437459
0.00500097
0.00562863
0.00624213
0.00682026
0.00691155
0.00733576
0.00776727
0.00799901
0.00802294
0.00809251
0.00831566
0.00844742
0.00851233
0.00853683
0.00854252
0.00854291
0.00854253
0.00853688
0.00851242
0.00844758
0.00831591
0.00809287
0.00802333
0.00776713
0.00733568
0.0069115
0.00682022
0.00624212
0.00562863
0.00500098
0.00437461
0.0037597
0.00316236
0.00258585
0.00203155
0.00149966
0.00098971
0.000500783
0.000507915
0.000998382
0.00151031
0.00204474
0.00260234
0.00318315
0.00378614
0.00440847
0.00504458
0.00568482
0.0063142
0.00691154
0.00700635
0.00744882
0.0079028
0.00814862
0.0081741
0.00824825
0.00848742
0.00862954
0.00869982
0.00872639
0.00873257
0.00873298
0.00873258
0.00872644
0.00869991
0.00862971
0.00848769
0.00824864
0.00817452
0.00790266
0.00744874
0.00700631
0.0069115
0.00631419
0.00568483
0.00504459
0.00440849
0.00378615
0.00318316
0.00260235
0.00204474
0.00151032
0.000998384
0.000507915
0.000537861
0.00103492
0.00155529
0.00210063
0.00267247
0.00327206
0.00389999
0.00455562
0.00523623
0.00593553
0.0066418
0.00733572
0.00744878
0.00798741
0.00856456
0.00889043
0.00892481
0.0090256
0.00935979
0.00956499
0.00966846
0.00970793
0.00971711
0.00971773
0.00971712
0.00970798
0.00966858
0.00956521
0.00936015
0.00902618
0.00892545
0.00856439
0.00798734
0.00744875
0.0073357
0.00664181
0.00593555
0.00523625
0.00455564
0.0039
0.00327208
0.00267248
0.00210063
0.00155529
0.00103492
0.000537861
0.000563681
0.00106651
0.00159431
0.00214933
0.00273394
0.00335057
0.00400153
0.00468868
0.00541275
0.00617222
0.00696138
0.00776715
0.00790268
0.00856445
0.00931469
0.00976489
0.00981371
0.00995849
0.0104593
0.0107853
0.010956
0.0110223
0.0110377
0.0110388
0.0110378
0.0110223
0.0109561
0.0107855
0.0104597
0.00995924
0.00981458
0.00931451
0.00856441
0.0079027
0.00776718
0.00696142
0.00617227
0.00541278
0.00468871
0.00400155
0.00335058
0.00273395
0.00214934
0.00159432
0.00106652
0.000563681
0.000577193
0.00108307
0.0016148
0.00217497
0.00276641
0.00339226
0.00405583
0.00476049
0.00550929
0.00630413
0.00714424
0.00802332
0.00817451
0.00892545
0.00981471
0.0103781
0.0104409
0.0106292
0.0113087
0.0117837
0.0120464
0.0121512
0.0121759
0.0121776
0.0121759
0.0121512
0.0120464
0.0117838
0.011309
0.0106299
0.0104417
0.0098146
0.0089255
0.00817459
0.0080234
0.00714431
0.00630419
0.00550934
0.00476053
0.00405585
0.00339227
0.00276642
0.00217497
0.00161481
0.00108307
0.000577193
0.00058066
0.00108731
0.00162006
0.00218156
0.00277477
0.00340301
0.00406987
0.00477915
0.00553451
0.00633887
0.00719299
0.00809285
0.00824862
0.00902617
0.00995932
0.0105613
0.0106291
0.0108332
0.0115811
0.0121204
0.0124273
0.012552
0.0125815
0.0125835
0.0125815
0.012552
0.0124273
0.0121205
0.0115813
0.0108337
0.0106299
0.00995926
0.00902624
0.00824872
0.00809295
0.00719308
0.00633893
0.00553456
0.00477918
0.0040699
0.00340303
0.00277479
0.00218157
0.00162007
0.00108732
0.00058066
0.000591026
0.00110003
0.00163584
0.00220135
0.00279993
0.00343544
0.00411238
0.00483586
0.00561172
0.00644631
0.007346
0.00831585
0.00848761
0.00936001
0.0104596
0.0112199
0.011309
0.0115814
0.012642
0.0135096
0.0140668
0.0143121
0.0143717
0.0143757
0.0143717
0.014312
0.0140666
0.0135094
0.0126418
0.0115813
0.011309
0.0104598
0.00936024
0.0084878
0.00831602
0.00734612
0.00644639
0.00561178
0.0048359
0.0041124
0.00343546
0.00279994
0.00220136
0.00163584
0.00110004
0.000591026
0.000596746
0.00110706
0.00164455
0.0022123
0.00281386
0.00345346
0.00413605
0.0048676
0.0056552
0.00650739
0.00743428
0.00844749
0.00862959
0.00956495
0.010785
0.0116767
0.0117851
0.0121217
0.0135102
0.0148354
0.0158661
0.0164083
0.0165521
0.0165618
0.0165521
0.0164082
0.0158659
0.0148349
0.0135094
0.0121205
0.0117839
0.0107856
0.00956533
0.00862985
0.00844772
0.00743442
0.00650748
0.00565526
0.00486764
0.00413608
0.00345347
0.00281388
0.0022123
0.00164456
0.00110706
0.000596746
0.000599463
0.00111039
0.0016487
0.0022175
0.0028205
0.00346204
0.00414736
0.00488278
0.00567607
0.00653686
0.00747721
0.00851232
0.00869978
0.00966825
0.0109553
0.0119277
0.012049
0.0124295
0.0140678
0.0158664
0.0176278
0.0188859
0.0193186
0.0193488
0.0193186
0.0188857
0.0176274
0.0158658
0.0140666
0.0124274
0.0120465
0.0109562
0.00966873
0.00870008
0.00851258
0.00747737
0.00653696
0.00567614
0.00488282
0.00414739
0.00346206
0.00282051
0.00221751
0.0016487
0.0011104
0.000599463
0.000600473
0.00111163
0.00165024
0.00221944
0.00282297
0.00346523
0.00415157
0.00488844
0.00568387
0.00654789
0.00749332
0.00853678
0.00872631
0.00970763
0.0110214
0.0120275
0.0121545
0.0125546
0.0143133
0.0164088
0.0188861
0.0214609
0.0230059
0.0231509
0.0230058
0.0214608
0.0188857
0.0164081
0.014312
0.0125521
0.0121513
0.0110224
0.00970815
0.00872662
0.00853706
0.00749349
0.00654799
0.00568393
0.00488848
0.00415159
0.00346525
0.00282298
0.00221945
0.00165024
0.00111164
0.000600473
0.000600706
0.00111192
0.00165059
0.00221989
0.00282353
0.00346597
0.00415254
0.00488975
0.00568567
0.00655044
0.00749705
0.00854245
0.00873246
0.00971679
0.0110368
0.012051
0.0121794
0.0125843
0.014373
0.0165527
0.0193189
0.0230059
0.0274375
0.0289148
0.0274375
0.0230058
0.0193185
0.016552
0.0143717
0.0125816
0.012176
0.0110379
0.00971732
0.00873278
0.00854274
0.00749722
0.00655054
0.00568573
0.00488979
0.00415257
0.00346599
0.00282355
0.0022199
0.0016506
0.00111192
0.000600706
0.000600722
0.00111194
0.00165062
0.00221992
0.00282357
0.00346602
0.0041526
0.00488984
0.00568579
0.00655061
0.0074973
0.00854283
0.00873287
0.0097174
0.0110379
0.0120526
0.012181
0.0125862
0.014377
0.0165624
0.0193491
0.023151
0.0289148
0.0658643
0.0289147
0.0231509
0.0193487
0.0165617
0.0143757
0.0125836
0.0121776
0.0110389
0.00971793
0.00873319
0.00854311
0.00749747
0.00655071
0.00568585
0.00488988
0.00415263
0.00346604
0.00282359
0.00221993
0.00165062
0.00111194
0.000600722
0.000600706
0.00111192
0.00165059
0.00221989
0.00282353
0.00346597
0.00415254
0.00488975
0.00568567
0.00655044
0.00749705
0.00854245
0.00873246
0.00971679
0.0110368
0.012051
0.0121794
0.0125843
0.014373
0.0165527
0.0193189
0.0230059
0.0274375
0.0289148
0.0274375
0.0230058
0.0193185
0.016552
0.0143717
0.0125816
0.012176
0.0110379
0.00971732
0.00873278
0.00854274
0.00749722
0.00655054
0.00568573
0.00488979
0.00415257
0.00346599
0.00282355
0.0022199
0.0016506
0.00111192
0.000600706
0.000600473
0.00111163
0.00165024
0.00221944
0.00282297
0.00346523
0.00415157
0.00488844
0.00568387
0.00654789
0.00749332
0.00853678
0.00872631
0.00970763
0.0110214
0.0120275
0.0121545
0.0125546
0.0143133
0.0164088
0.0188861
0.0214609
0.0230059
0.0231509
0.0230058
0.0214608
0.0188857
0.0164081
0.014312
0.0125521
0.0121513
0.0110224
0.00970815
0.00872662
0.00853706
0.00749349
0.00654799
0.00568393
0.00488848
0.00415159
0.00346525
0.00282298
0.00221945
0.00165024
0.00111164
0.000600473
0.000599463
0.00111039
0.0016487
0.0022175
0.0028205
0.00346204
0.00414736
0.00488278
0.00567607
0.00653686
0.00747721
0.00851232
0.00869978
0.00966825
0.0109553
0.0119277
0.012049
0.0124295
0.0140678
0.0158664
0.0176278
0.0188859
0.0193186
0.0193488
0.0193186
0.0188857
0.0176274
0.0158658
0.0140666
0.0124274
0.0120465
0.0109562
0.00966873
0.00870008
0.00851258
0.00747737
0.00653696
0.00567614
0.00488282
0.00414739
0.00346206
0.00282051
0.00221751
0.0016487
0.0011104
0.000599463
0.000596746
0.00110706
0.00164455
0.0022123
0.00281386
0.00345346
0.00413605
0.0048676
0.0056552
0.00650739
0.00743428
0.00844749
0.00862959
0.00956495
0.010785
0.0116767
0.0117851
0.0121217
0.0135102
0.0148354
0.0158661
0.0164083
0.0165521
0.0165618
0.0165521
0.0164082
0.0158659
0.0148349
0.0135094
0.0121205
0.0117839
0.0107856
0.00956533
0.00862985
0.00844772
0.00743442
0.00650748
0.00565526
0.00486764
0.00413608
0.00345347
0.00281388
0.0022123
0.00164456
0.00110706
0.000596746
0.000591026
0.00110003
0.00163584
0.00220135
0.00279993
0.00343544
0.00411238
0.00483586
0.00561172
0.00644631
0.007346
0.00831585
0.00848761
0.00936001
0.0104596
0.0112199
0.011309
0.0115814
0.012642
0.0135096
0.0140668
0.0143121
0.0143717
0.0143757
0.0143717
0.014312
0.0140666
0.0135094
0.0126418
0.0115813
0.011309
0.0104598
0.00936024
0.0084878
0.00831602
0.00734612
0.00644639
0.00561178
0.0048359
0.0041124
0.00343546
0.00279994
0.00220136
0.00163584
0.00110004
0.000591026
0.00058066
0.00108731
0.00162006
0.00218156
0.00277477
0.00340301
0.00406987
0.00477915
0.00553451
0.00633887
0.00719299
0.00809285
0.00824862
0.00902617
0.00995932
0.0105613
0.0106291
0.0108332
0.0115811
0.0121204
0.0124273
0.012552
0.0125815
0.0125835
0.0125815
0.012552
0.0124273
0.0121205
0.0115813
0.0108337
0.0106299
0.00995926
0.00902624
0.00824872
0.00809295
0.00719308
0.00633893
0.00553456
0.00477918
0.0040699
0.00340303
0.00277479
0.00218157
0.00162007
0.00108732
0.00058066
0.000577193
0.00108307
0.0016148
0.00217497
0.00276641
0.00339226
0.00405583
0.00476049
0.00550929
0.00630413
0.00714424
0.00802332
0.00817451
0.00892545
0.00981471
0.0103781
0.0104409
0.0106292
0.0113087
0.0117837
0.0120464
0.0121512
0.0121759
0.0121776
0.0121759
0.0121512
0.0120464
0.0117838
0.011309
0.0106299
0.0104417
0.0098146
0.0089255
0.00817459
0.0080234
0.00714431
0.00630419
0.00550934
0.00476053
0.00405585
0.00339227
0.00276642
0.00217497
0.00161481
0.00108307
0.000577193
0.000563681
0.00106651
0.00159431
0.00214933
0.00273394
0.00335057
0.00400153
0.00468868
0.00541275
0.00617222
0.00696138
0.00776715
0.00790268
0.00856445
0.00931469
0.00976489
0.00981371
0.00995849
0.0104593
0.0107853
0.010956
0.0110223
0.0110377
0.0110388
0.0110378
0.0110223
0.0109561
0.0107855
0.0104597
0.00995924
0.00981458
0.00931451
0.00856441
0.0079027
0.00776718
0.00696142
0.00617227
0.00541278
0.00468871
0.00400155
0.00335058
0.00273395
0.00214934
0.00159432
0.00106652
0.000563681
0.000537861
0.00103492
0.00155529
0.00210063
0.00267247
0.00327206
0.00389999
0.00455562
0.00523623
0.00593553
0.0066418
0.00733572
0.00744878
0.00798741
0.00856456
0.00889043
0.00892481
0.0090256
0.00935979
0.00956499
0.00966846
0.00970793
0.00971711
0.00971773
0.00971712
0.00970798
0.00966858
0.00956521
0.00936015
0.00902618
0.00892545
0.00856439
0.00798734
0.00744875
0.0073357
0.00664181
0.00593555
0.00523625
0.00455564
0.0039
0.00327208
0.00267248
0.00210063
0.00155529
0.00103492
0.000537861
0.000507915
0.000998382
0.00151031
0.00204474
0.00260234
0.00318315
0.00378614
0.00440847
0.00504458
0.00568482
0.0063142
0.00691154
0.00700635
0.00744882
0.0079028
0.00814862
0.0081741
0.00824825
0.00848742
0.00862954
0.00869982
0.00872639
0.00873257
0.00873298
0.00873258
0.00872644
0.00869991
0.00862971
0.00848769
0.00824864
0.00817452
0.00790266
0.00744874
0.00700631
0.0069115
0.00631419
0.00568483
0.00504459
0.00440849
0.00378615
0.00318316
0.00260235
0.00204474
0.00151032
0.000998384
0.000507915
0.000500783
0.000989708
0.00149966
0.00203154
0.00258584
0.00316235
0.00375969
0.00437459
0.00500097
0.00562863
0.00624213
0.00682026
0.00691155
0.00733576
0.00776727
0.00799901
0.00802294
0.00809251
0.00831566
0.00844742
0.00851233
0.00853683
0.00854252
0.00854291
0.00854253
0.00853688
0.00851242
0.00844758
0.00831591
0.00809287
0.00802333
0.00776713
0.00733568
0.0069115
0.00682022
0.00624212
0.00562863
0.00500098
0.00437461
0.0037597
0.00316236
0.00258585
0.00203155
0.00149966
0.00098971
0.000500783
0.000449961
0.000927917
0.00142398
0.00193812
0.00246962
0.00301669
0.00357592
0.00414168
0.00470531
0.00525445
0.00577299
0.00624215
0.00631423
0.00664186
0.00696147
0.00712715
0.00714403
0.0071928
0.00734587
0.0074342
0.00747716
0.0074933
0.00749704
0.00749729
0.00749704
0.00749332
0.00747722
0.00743429
0.00734601
0.00719299
0.00714424
0.00696137
0.00664178
0.00631417
0.0062421
0.00577296
0.00525444
0.00470531
0.00414169
0.00357593
0.00301669
0.00246963
0.00193813
0.00142398
0.000927918
0.000449961
0.000382981
0.000846892
0.00132537
0.00181738
0.00232095
0.00283277
0.00334776
0.00385857
0.00435524
0.00482528
0.00525446
0.00562866
0.00568485
0.00593557
0.00617229
0.00629194
0.00630402
0.00633877
0.00644622
0.00650733
0.00653681
0.00654785
0.0065504
0.00655057
0.00655041
0.00654786
0.00653684
0.00650737
0.00644629
0.00633886
0.00630411
0.00617221
0.00593551
0.0056848
0.00562861
0.00525443
0.00482527
0.00435524
0.00385856
0.00334776
0.00283277
0.00232095
0.00181738
0.00132537
0.000846893
0.000382981
0.000297672
0.000744346
0.00120154
0.00166725
0.00213833
0.00261029
0.00307689
0.00353003
0.00395983
0.00435525
0.00470532
0.00500099
0.0050446
0.00523626
0.00541279
0.00550044
0.00550923
0.00553445
0.00561167
0.00565516
0.00567604
0.00568383
0.00568563
0.00568575
0.00568563
0.00568384
0.00567605
0.00565518
0.0056117
0.00553449
0.00550927
0.00541273
0.00523621
0.00504456
0.00500095
0.00470529
0.00435523
0.00395982
0.00353002
0.00307689
0.00261029
0.00213834
0.00166725
0.00120155
0.000744347
0.000297672
0.000192271
0.000618618
0.00105114
0.00148695
0.00192205
0.00235116
0.00276762
0.00316349
0.00353003
0.00385857
0.0041417
0.00437461
0.00440849
0.00455565
0.00468871
0.00475395
0.00476046
0.00477912
0.00483583
0.00486757
0.00488275
0.00488841
0.00488972
0.00488981
0.00488972
0.00488842
0.00488276
0.00486758
0.00483584
0.00477913
0.00476047
0.00468866
0.00455561
0.00440846
0.00437458
0.00414167
0.00385855
0.00353002
0.00316348
0.00276761
0.00235116
0.00192205
0.00148695
0.00105114
0.000618619
0.000192271
6.55829e-05
0.000468835
0.000873842
0.00127708
0.00167404
0.00205918
0.00242605
0.00276762
0.0030769
0.00334776
0.00357593
0.0037597
0.00378615
0.0039
0.00400155
0.0040509
0.00405581
0.00406986
0.00411236
0.00413604
0.00414734
0.00415155
0.00415252
0.00415259
0.00415252
0.00415155
0.00414734
0.00413604
0.00411236
0.00406986
0.00405581
0.00400152
0.00389997
0.00378613
0.00375968
0.00357591
0.00334775
0.00307688
0.00276761
0.00242605
0.00205918
0.00167404
0.00127708
0.000873842
0.000468835
6.55829e-05
-8.29123e-05
0.000294999
0.000670445
0.00103955
0.00139765
0.00173944
0.00205919
0.00235117
0.0026103
0.00283278
0.00301669
0.00316237
0.00318317
0.00327207
0.00335058
0.00338848
0.00339225
0.003403
0.00343543
0.00345344
0.00346203
0.00346522
0.00346596
0.00346601
0.00346596
0.00346522
0.00346203
0.00345344
0.00343543
0.003403
0.00339224
0.00335056
0.00327205
0.00318314
0.00316234
0.00301668
0.00283276
0.00261028
0.00235116
0.00205918
0.00173944
0.00139765
0.00103954
0.000670444
0.000294999
-8.29123e-05
-0.00025301
9.7988e-05
0.000442725
0.000777259
0.00109715
0.00139765
0.00167405
0.00192205
0.00213834
0.00232095
0.00246963
0.00258585
0.00260235
0.00267248
0.00273394
0.00276348
0.00276641
0.00277477
0.00279992
0.00281386
0.00282049
0.00282296
0.00282353
0.00282357
0.00282353
0.00282296
0.00282049
0.00281385
0.00279992
0.00277477
0.0027664
0.00273393
0.00267246
0.00260233
0.00258584
0.00246962
0.00232094
0.00213833
0.00192205
0.00167404
0.00139765
0.00109715
0.000777257
0.000442724
9.79877e-05
-0.00025301
-0.000443806
-0.000120549
0.000193249
0.000493842
0.000777259
0.00103955
0.00127708
0.00148695
0.00166725
0.00181738
0.00193813
0.00203155
0.00204474
0.00210063
0.00214933
0.00217265
0.00217496
0.00218156
0.00220134
0.00221229
0.0022175
0.00221944
0.00221988
0.00221991
0.00221988
0.00221944
0.0022175
0.00221229
0.00220134
0.00218155
0.00217496
0.00214932
0.00210062
0.00204473
0.00203154
0.00193812
0.00181737
0.00166724
0.00148694
0.00127708
0.00103954
0.000777257
0.000493841
0.000193248
-0.00012055
-0.000443806
-0.000653781
-0.000358357
-7.48928e-05
0.000193249
0.000442726
0.000670446
0.000873843
0.00105114
0.00120155
0.00132537
0.00142398
0.00149966
0.00151032
0.00155529
0.00159432
0.00161296
0.0016148
0.00162006
0.00163583
0.00164455
0.00164869
0.00165023
0.00165059
0.00165061
0.00165059
0.00165023
0.00164869
0.00164455
0.00163583
0.00162006
0.0016148
0.00159431
0.00155529
0.00151031
0.00149966
0.00142398
0.00132537
0.00120154
0.00105114
0.00087384
0.000670443
0.000442724
0.000193248
-7.48935e-05
-0.000358357
-0.000653781
-0.000880945
-0.000612775
-0.000358357
-0.000120549
9.79883e-05
0.000295
0.000468835
0.000618619
0.000744347
0.000846893
0.000927919
0.00098971
0.000998384
0.00103492
0.00106652
0.00108158
0.00108307
0.00108731
0.00110003
0.00110706
0.00111039
0.00111163
0.00111192
0.00111194
0.00111192
0.00111163
0.00111039
0.00110706
0.00110003
0.00108731
0.00108306
0.00106651
0.00103492
0.000998381
0.000989706
0.000927915
0.00084689
0.000744345
0.000618617
0.000468833
0.000294998
9.79873e-05
-0.00012055
-0.000358357
-0.000612775
-0.000880945
-0.00112299
-0.000880945
-0.000653781
-0.000443806
-0.00025301
-8.29123e-05
6.55829e-05
0.000192271
0.000297672
0.000382981
0.000449961
0.000500783
0.000507915
0.000537861
0.000563681
0.000575977
0.000577193
0.00058066
0.000591026
0.000596746
0.000599463
0.000600473
0.000600706
0.000600722
0.000600706
0.000600473
0.000599463
0.000596746
0.000591026
0.00058066
0.000577193
0.000563681
0.000537861
0.000507915
0.000500783
0.000449961
0.000382981
0.000297672
0.000192271
6.55829e-05
-8.29123e-05
-0.00025301
-0.000443806
-0.000653781
-0.000880945
-0.00112299
-0.00224599
-0.00176189
-0.00130756
-0.000887612
-0.000506021
-0.000165825
0.000131166
0.000384542
0.000595343
0.000765962
0.000899921
0.00100157
0.00101583
0.00107572
0.00112736
0.00115195
0.00115439
0.00116132
0.00118205
0.00119349
0.00119893
0.00120095
0.00120141
0.00120144
0.00120141
0.00120095
0.00119893
0.00119349
0.00118205
0.00116132
0.00115439
0.00112736
0.00107572
0.00101583
0.00100157
0.000899921
0.000765962
0.000595343
0.000384542
0.000131166
-0.000165825
-0.000506021
-0.000887612
-0.00130756
-0.00176189
-0.00224599
-0.00176189
-0.00122555
-0.000716714
-0.000241099
0.000195976
0.000589999
0.00093767
0.00123724
0.00148869
0.00169379
0.00185584
0.00197942
0.00199677
0.00206984
0.00213303
0.00216315
0.00216613
0.00217463
0.00220007
0.00221411
0.00222078
0.00222327
0.00222384
0.00222388
0.00222384
0.00222327
0.00222078
0.00221411
0.00220007
0.00217462
0.00216613
0.00213302
0.00206983
0.00199676
0.00197941
0.00185583
0.00169378
0.00148869
0.00123723
0.000937666
0.000589996
0.000195974
-0.0002411
-0.000716715
-0.00122555
-0.00176189
-0.00130756
-0.000716714
-0.000149786
0.000386498
0.00088545
0.00134089
0.00174769
0.00210228
0.00240309
0.00265074
0.00284796
0.00299932
0.00302063
0.00311058
0.00318863
0.00322591
0.0032296
0.00324012
0.00327167
0.0032891
0.00329739
0.00330047
0.00330118
0.00330122
0.00330118
0.00330047
0.00329738
0.0032891
0.00327167
0.00324012
0.00322959
0.00318862
0.00311057
0.00302062
0.00299931
0.00284795
0.00265073
0.00240308
0.00210227
0.00174768
0.00134089
0.000885447
0.000386496
-0.000149787
-0.000716715
-0.00130756
-0.000887612
-0.000241099
0.000386498
0.000987683
0.00155452
0.00207909
0.00255417
0.0029739
0.0033345
0.00363477
0.00387626
0.00406309
0.00408949
0.00420126
0.00429867
0.00434531
0.00434993
0.00436311
0.00440269
0.00442458
0.004435
0.00443887
0.00443976
0.00443982
0.00443976
0.00443887
0.004435
0.00442458
0.00440268
0.0043631
0.00434992
0.00429864
0.00420124
0.00408946
0.00406307
0.00387624
0.00363475
0.00333448
0.00297388
0.00255416
0.00207908
0.00155451
0.00098768
0.000386496
-0.0002411
-0.000887612
-0.000506021
0.000195976
0.00088545
0.00155452
0.0021943
0.0027953
0.00334809
0.0038441
0.00427668
0.0046419
0.00493926
0.0051717
0.00520469
0.00534496
0.00546789
0.00552696
0.00553281
0.00554954
0.00559984
0.00562771
0.00564098
0.00564591
0.00564705
0.00564713
0.00564705
0.00564591
0.00564098
0.00562771
0.00559983
0.00554953
0.00553281
0.00546785
0.00534493
0.00520466
0.00517167
0.00493923
0.00464188
0.00427666
0.00384409
0.00334808
0.0027953
0.00219429
0.00155451
0.000885448
0.000195975
-0.000506021
-0.000165825
0.000589998
0.00134089
0.00207909
0.0027953
0.00347889
0.00411837
0.00470233
0.00522059
0.00566555
0.00603339
0.00632473
0.00636633
0.00654415
0.00670116
0.00677696
0.00678449
0.006806
0.00687087
0.00690689
0.00692405
0.00693044
0.00693192
0.00693202
0.00693192
0.00693044